 Entering Gaussian System, Link 0=g09
 Input=tBu-dipolo.gjf
 Output=tBu-dipolo.log
 Initial command:
 /home/javier/program/gaussian/g09/l1.exe "/media/javier/DATA/1.ESCUELA/Researching/DFT/Reacciones dipolo/pople/1.reaccionantes/2.pop_reg/2.b3lyp/1/Gau-3479.inp" -scrdir="/media/javier/DATA/1.ESCUELA/Researching/DFT/Reacciones dipolo/pople/1.reaccionantes/2.pop_reg/2.b3lyp/1/"
 Entering Link 1 = /home/javier/program/gaussian/g09/l1.exe PID=      3481.
  
 Copyright (c) 1988,1990,1992,1993,1995,1998,2003,2009,2015,
            Gaussian, Inc.  All Rights Reserved.
  
 This is part of the Gaussian(R) 09 program.  It is based on
 the Gaussian(R) 03 system (copyright 2003, Gaussian, Inc.),
 the Gaussian(R) 98 system (copyright 1998, Gaussian, Inc.),
 the Gaussian(R) 94 system (copyright 1995, Gaussian, Inc.),
 the Gaussian 92(TM) system (copyright 1992, Gaussian, Inc.),
 the Gaussian 90(TM) system (copyright 1990, Gaussian, Inc.),
 the Gaussian 88(TM) system (copyright 1988, Gaussian, Inc.),
 the Gaussian 86(TM) system (copyright 1986, Carnegie Mellon
 University), and the Gaussian 82(TM) system (copyright 1983,
 Carnegie Mellon University). Gaussian is a federally registered
 trademark of Gaussian, Inc.
  
 This software contains proprietary and confidential information,
 including trade secrets, belonging to Gaussian, Inc.
  
 This software is provided under written license and may be
 used, copied, transmitted, or stored only in accord with that
 written license.
  
 The following legend is applicable only to US Government
 contracts under FAR:
  
                    RESTRICTED RIGHTS LEGEND
  
 Use, reproduction and disclosure by the US Government is
 subject to restrictions as set forth in subparagraphs (a)
 and (c) of the Commercial Computer Software - Restricted
 Rights clause in FAR 52.227-19.
  
 Gaussian, Inc.
 340 Quinnipiac St., Bldg. 40, Wallingford CT 06492
  
  
 ---------------------------------------------------------------
 Warning -- This program may not be used in any manner that
 competes with the business of Gaussian, Inc. or will provide
 assistance to any competitor of Gaussian, Inc.  The licensee
 of this program is prohibited from giving any competitor of
 Gaussian, Inc. access to this program.  By using this program,
 the user acknowledges that Gaussian, Inc. is engaged in the
 business of creating and licensing software in the field of
 computational chemistry and represents and warrants to the
 licensee that it is not a competitor of Gaussian, Inc. and that
 it will not use this program in any manner prohibited above.
 ---------------------------------------------------------------
  

 Cite this work as:
 Gaussian 09, Revision E.01,
 M. J. Frisch, G. W. Trucks, H. B. Schlegel, G. E. Scuseria, 
 M. A. Robb, J. R. Cheeseman, G. Scalmani, V. Barone, B. Mennucci, 
 G. A. Petersson, H. Nakatsuji, M. Caricato, X. Li, H. P. Hratchian, 
 A. F. Izmaylov, J. Bloino, G. Zheng, J. L. Sonnenberg, M. Hada, 
 M. Ehara, K. Toyota, R. Fukuda, J. Hasegawa, M. Ishida, T. Nakajima, 
 Y. Honda, O. Kitao, H. Nakai, T. Vreven, J. A. Montgomery, Jr., 
 J. E. Peralta, F. Ogliaro, M. Bearpark, J. J. Heyd, E. Brothers, 
 K. N. Kudin, V. N. Staroverov, T. Keith, R. Kobayashi, J. Normand, 
 K. Raghavachari, A. Rendell, J. C. Burant, S. S. Iyengar, J. Tomasi, 
 M. Cossi, N. Rega, J. M. Millam, M. Klene, J. E. Knox, J. B. Cross, 
 V. Bakken, C. Adamo, J. Jaramillo, R. Gomperts, R. E. Stratmann, 
 O. Yazyev, A. J. Austin, R. Cammi, C. Pomelli, J. W. Ochterski, 
 R. L. Martin, K. Morokuma, V. G. Zakrzewski, G. A. Voth, 
 P. Salvador, J. J. Dannenberg, S. Dapprich, A. D. Daniels, 
 O. Farkas, J. B. Foresman, J. V. Ortiz, J. Cioslowski, 
 and D. J. Fox, Gaussian, Inc., Wallingford CT, 2013.
 
 ******************************************
 Gaussian 09:  ES64L-G09RevE.01 30-Nov-2015
                17-Nov-2019 
 ******************************************
 %chk=tBu-dipolo.chk
 %nprocshared=4
 Will use up to    4 processors via shared memory.
 %mem=4GB
 ----------------------------------------------------------------------
 # 6-311g(d) b3lyp empiricaldispersion=gd3 SCRF=(smd, Solvent=acetonitr
 ile) Int=UltraFine nosymm scf=(maxcycle=1600, xqc) Temperature=273.15 
 Pop=Reg
 ----------------------------------------------------------------------
 1/38=1,112=273150/1;
 2/12=2,15=1,17=6,18=5,40=1/2;
 3/5=4,6=6,7=1,11=2,16=1,25=1,30=1,70=32201,72=2,74=-5,75=-5,124=31/1,2,3;
 4//1;
 5/5=2,7=1600,8=3,13=1,38=5,53=2/2,8;
 6/28=1/1;
 99/5=1,9=1/99;
 ----------
 tBu-dipolo
 ----------
 Symbolic Z-matrix:
 Charge =  0 Multiplicity = 1
 C                    -1.08802  -0.21881  -0.28892 
 C                    -0.17782   0.13889   0.89648 
 O                     0.469     1.17138   0.96708 
 C                    -0.22148  -0.76424   2.04981 
 N                     0.53806  -1.65838   2.36147 
 C                     1.28569  -2.60816   2.75887 
 H                     1.0494   -3.6263    2.46953 
 H                     2.14878  -2.38263   3.37551 
 C                    -2.50614   0.28813   0.0533 
 H                    -2.50989   1.36919   0.21771 
 H                    -3.18383   0.06698  -0.77673 
 H                    -2.89901  -0.1971    0.9505 
 C                    -0.56575   0.49485  -1.54231 
 H                    -1.23075   0.29307  -2.38655 
 H                    -0.51871   1.57459  -1.39182 
 H                     0.43657   0.14703  -1.80827 
 C                    -1.1177   -1.73971  -0.51306 
 H                    -0.11499  -2.13507  -0.6999 
 H                    -1.53995  -2.27353   0.3429 
 H                    -1.73954  -1.97098  -1.38202 
 
                          Input orientation:                          
 ---------------------------------------------------------------------
 Center     Atomic      Atomic             Coordinates (Angstroms)
 Number     Number       Type             X           Y           Z
 ---------------------------------------------------------------------
      1          6           0       -1.088023   -0.218805   -0.288920
      2          6           0       -0.177817    0.138892    0.896477
      3          8           0        0.469004    1.171377    0.967076
      4          6           0       -0.221483   -0.764239    2.049806
      5          7           0        0.538064   -1.658382    2.361470
      6          6           0        1.285693   -2.608158    2.758868
      7          1           0        1.049403   -3.626299    2.469528
      8          1           0        2.148778   -2.382629    3.375512
      9          6           0       -2.506144    0.288129    0.053295
     10          1           0       -2.509888    1.369188    0.217712
     11          1           0       -3.183825    0.066983   -0.776729
     12          1           0       -2.899006   -0.197095    0.950495
     13          6           0       -0.565753    0.494850   -1.542306
     14          1           0       -1.230748    0.293073   -2.386553
     15          1           0       -0.518711    1.574593   -1.391815
     16          1           0        0.436572    0.147029   -1.808268
     17          6           0       -1.117703   -1.739711   -0.513057
     18          1           0       -0.114988   -2.135067   -0.699898
     19          1           0       -1.539950   -2.273528    0.342898
     20          1           0       -1.739538   -1.970977   -1.382023
 ---------------------------------------------------------------------
                    Distance matrix (angstroms):
                    1          2          3          4          5
     1  C    0.000000
     2  C    1.536746   0.000000
     3  O    2.436076   1.220404   0.000000
     4  C    2.553043   1.465510   2.322862   0.000000
     5  N    3.426530   2.426702   3.155414   1.213894   0.000000
     6  C    4.542306   3.627209   4.261735   2.484831   1.272379
     7  H    4.877360   4.261129   5.060822   3.159542   2.036134
     8  H    5.346688   4.232815   4.610115   3.161458   2.036471
     9  C    1.544396   2.480793   3.235217   3.211419   4.287631
    10  H    2.190913   2.722665   3.078063   3.625586   4.801238
    11  H    2.170718   3.441057   4.195677   4.178002   5.165040
    12  H    2.194603   2.742385   3.635448   2.949452   3.992450
    13  C    1.533964   2.494968   2.797393   3.821923   4.592852
    14  H    2.163898   3.451191   3.861011   4.670953   5.429604
    15  H    2.181002   2.722816   2.588925   4.171718   5.065180
    16  H    2.183264   2.773659   2.958526   4.018480   4.544945
    17  C    1.537619   2.529688   3.630822   2.884965   3.318295
    18  H    2.188095   2.779074   3.748656   3.074310   3.166335
    19  H    2.196661   2.825177   4.036442   2.632460   2.961618
    20  H    2.165514   3.475929   4.502256   3.941847   4.393054
                    6          7          8          9         10
     6  C    0.000000
     7  H    1.084510   0.000000
     8  H    1.084449   1.891070   0.000000
     9  C    5.485128   5.814021   6.311765   0.000000
    10  H    6.056665   6.534074   6.763949   1.093497   0.000000
    11  H    6.295508   6.488354   7.188766   1.094119   1.771678
    12  H    5.157048   5.445809   6.011438   1.093047   1.772463
    13  C    5.617527   5.973894   6.311378   2.520673   2.764379
    14  H    6.420668   6.643951   7.195969   2.753092   3.094579
    15  H    6.162747   6.664700   6.745555   2.773666   2.568570
    16  H    5.400999   5.736994   6.016843   3.484954   3.778875
    17  C    4.151627   4.141422   5.119005   2.522035   3.483885
    18  H    3.761487   3.691184   4.668500   3.486661   4.342506
    19  H    3.732713   3.613488   4.776543   2.753087   3.771715
    20  H    5.167688   5.035149   6.158133   2.784130   3.782763
                   11         12         13         14         15
    11  H    0.000000
    12  H    1.770356   0.000000
    13  C    2.761065   3.483807   0.000000
    14  H    2.541094   3.762876   1.093474   0.000000
    15  H    3.123148   3.780357   1.091195   1.771664   0.000000
    16  H    3.765336   4.342266   1.093787   1.770790   1.767466
    17  C    2.757268   2.773930   2.521362   2.766763   3.480750
    18  H    3.777921   3.772305   2.798089   3.159998   3.795170
    19  H    3.071462   2.554952   3.488118   3.759382   4.342832
    20  H    2.570141   3.151454   2.735647   2.528610   3.749877
                   16         17         18         19         20
    16  H    0.000000
    17  C    2.766429   0.000000
    18  H    2.596279   1.093916   0.000000
    19  H    3.793844   1.093578   1.771189   0.000000
    20  H    3.066446   1.093282   1.769571   1.762590   0.000000
 Symmetry turned off by external request.
 Stoichiometry    C7H11NO
 Framework group  C1[X(C7H11NO)]
 Deg. of freedom    54
 Full point group                 C1      NOp   1
 Rotational constants (GHZ):      2.6734296      1.0723311      0.9502673
 Standard basis: 6-311G(d) (5D, 7F)
   195 basis functions,   343 primitive gaussians,   204 cartesian basis functions
    34 alpha electrons       34 beta electrons
       nuclear repulsion energy       440.0528227179 Hartrees.
 NAtoms=   20 NActive=   20 NUniq=   20 SFac= 1.00D+00 NAtFMM=   60 NAOKFM=F Big=F
 Integral buffers will be    131072 words long.
 Raffenetti 2 integral format.
 Two-electron integral symmetry is turned off.
 Nuclear repulsion after empirical dispersion term =      440.0360147833 Hartrees.
 ------------------------------------------------------------------------------
 Polarizable Continuum Model (PCM)
 =================================
 Model                : PCM (using non-symmetric T matrix).
 Atomic radii         : SMD-Coulomb.
 Polarization charges : Total charges.
 Charge compensation  : None.
 Solution method      : On-the-fly selection.
 Cavity type          : VdW (van der Waals Surface) (Alpha=1.000).
 Cavity algorithm     : GePol (No added spheres)
                        Default sphere list used, NSphG=   20.
                        Lebedev-Laikov grids with approx.  5.0 points / Ang**2.
                        Smoothing algorithm: York/Karplus (Gamma=1.0000).
                        Polarization charges: spherical gaussians, with
                                              point-specific exponents (IZeta= 3).
                        Self-potential: point-specific (ISelfS= 7).
                        Self-field    : sphere-specific E.n sum rule (ISelfD= 2).
 Solvent              : Acetonitrile, Eps=  35.688000 Eps(inf)=   1.806874
 ------------------------------------------------------------------------------
 Spheres list:
 ISph  on   Nord     Re0    Alpha      Xe            Ye            Ze
    1   C      1    1.8500  1.000     -1.088023     -0.218805     -0.288920
    2   C      2    1.8500  1.000     -0.177817      0.138892      0.896477
    3   O      3    2.1680  1.000      0.469004      1.171377      0.967076
    4   C      4    1.8500  1.000     -0.221483     -0.764239      2.049806
    5   N      5    1.8900  1.000      0.538064     -1.658382      2.361470
    6   C      6    1.8500  1.000      1.285693     -2.608158      2.758868
    7   H      7    1.2000  1.000      1.049403     -3.626299      2.469528
    8   H      8    1.2000  1.000      2.148778     -2.382629      3.375512
    9   C      9    1.8500  1.000     -2.506144      0.288129      0.053295
   10   H     10    1.2000  1.000     -2.509888      1.369188      0.217712
   11   H     11    1.2000  1.000     -3.183825      0.066983     -0.776729
   12   H     12    1.2000  1.000     -2.899006     -0.197095      0.950495
   13   C     13    1.8500  1.000     -0.565753      0.494850     -1.542306
   14   H     14    1.2000  1.000     -1.230748      0.293073     -2.386553
   15   H     15    1.2000  1.000     -0.518711      1.574593     -1.391815
   16   H     16    1.2000  1.000      0.436572      0.147029     -1.808268
   17   C     17    1.8500  1.000     -1.117703     -1.739711     -0.513057
   18   H     18    1.2000  1.000     -0.114988     -2.135067     -0.699898
   19   H     19    1.2000  1.000     -1.539950     -2.273528      0.342898
   20   H     20    1.2000  1.000     -1.739538     -1.970977     -1.382023
 ------------------------------------------------------------------------------
 ------------------------------------------------------------------------------
 Atomic radii for non-electrostatic terms: SMD-CDS.
 ------------------------------------------------------------------------------
 Nuclear repulsion after PCM non-electrostatic terms =      440.0353734519 Hartrees.
 One-electron integrals computed using PRISM.
 NBasis=   195 RedAO= T EigKep=  1.52D-03  NBF=   195
 NBsUse=   195 1.00D-06 EigRej= -1.00D+00 NBFU=   195
 ExpMin= 1.03D-01 ExpMax= 8.59D+03 ExpMxC= 1.30D+03 IAcc=3 IRadAn=         5 AccDes= 0.00D+00
 Harris functional with IExCor=  402 and IRadAn=       5 diagonalized for initial guess.
 HarFok:  IExCor=  402 AccDes= 0.00D+00 IRadAn=         5 IDoV= 1 UseB2=F ITyADJ=14
 ICtDFT=  3500011 ScaDFX=  1.000000  1.000000  1.000000  1.000000
 FoFCou: FMM=F IPFlag=           0 FMFlag=      100000 FMFlg1=           0
         NFxFlg=           0 DoJE=T BraDBF=F KetDBF=T FulRan=T
         wScrn=  0.000000 ICntrl=     500 IOpCl=  0 I1Cent=   200000004 NGrid=           0
         NMat0=    1 NMatS0=      1 NMatT0=    0 NMatD0=    1 NMtDS0=    0 NMtDT0=    0
 Symmetry not used in FoFCou.
 Keep R1 ints in memory in canonical form, NReq=188529150.
 Requested convergence on RMS density matrix=1.00D-08 within 128 cycles.
 Requested convergence on MAX density matrix=1.00D-06.
 Requested convergence on             energy=1.00D-06.
 No special actions if energy rises.
 Inv3:  Mode=1 IEnd=     7161075.
 Iteration    1 A*A^-1 deviation from unit magnitude is 6.00D-15 for   1520.
 Iteration    1 A*A^-1 deviation from orthogonality  is 2.68D-15 for   1042    116.
 Iteration    1 A^-1*A deviation from unit magnitude is 6.22D-15 for   1520.
 Iteration    1 A^-1*A deviation from orthogonality  is 1.04D-11 for   1088   1077.
 Error on total polarization charges =  0.03933
 SCF Done:  E(RB3LYP) =  -403.388444120     A.U. after   14 cycles
            NFock= 14  Conv=0.29D-08     -V/T= 2.0039
 SMD-CDS (non-electrostatic) energy       (kcal/mol) =      -0.40
 (included in total energy above)
 QCSCF skips out because SCF is already converged.

 **********************************************************************

            Population analysis using the SCF density.

 **********************************************************************

 Alpha  occ. eigenvalues --  -19.10660 -14.39348 -10.26686 -10.21871 -10.21249
 Alpha  occ. eigenvalues --  -10.19010 -10.15644 -10.15455 -10.15077  -1.04636
 Alpha  occ. eigenvalues --   -0.98767  -0.82237  -0.78403  -0.68688  -0.68617
 Alpha  occ. eigenvalues --   -0.65480  -0.56831  -0.53458  -0.49621  -0.47968
 Alpha  occ. eigenvalues --   -0.45694  -0.45184  -0.43107  -0.42326  -0.39371
 Alpha  occ. eigenvalues --   -0.38450  -0.37247  -0.36641  -0.36442  -0.33533
 Alpha  occ. eigenvalues --   -0.33256  -0.32916  -0.26759  -0.21738
 Alpha virt. eigenvalues --   -0.03329  -0.02125   0.00559   0.05326   0.07199
 Alpha virt. eigenvalues --    0.09718   0.10239   0.10906   0.11606   0.11857
 Alpha virt. eigenvalues --    0.13717   0.16051   0.16295   0.17511   0.17850
 Alpha virt. eigenvalues --    0.20093   0.21414   0.22404   0.24718   0.27732
 Alpha virt. eigenvalues --    0.28563   0.29562   0.29646   0.33469   0.34097
 Alpha virt. eigenvalues --    0.36495   0.37203   0.38828   0.39977   0.41841
 Alpha virt. eigenvalues --    0.43114   0.45448   0.46439   0.47015   0.47877
 Alpha virt. eigenvalues --    0.48832   0.52374   0.52903   0.55656   0.57475
 Alpha virt. eigenvalues --    0.58529   0.59116   0.59525   0.61079   0.61924
 Alpha virt. eigenvalues --    0.62641   0.63463   0.63908   0.65004   0.65823
 Alpha virt. eigenvalues --    0.66588   0.67031   0.67826   0.68183   0.71603
 Alpha virt. eigenvalues --    0.75947   0.80370   0.82559   0.85369   0.88616
 Alpha virt. eigenvalues --    0.90456   0.97345   0.99414   1.04166   1.07545
 Alpha virt. eigenvalues --    1.09060   1.13177   1.17814   1.18956   1.23137
 Alpha virt. eigenvalues --    1.26971   1.31427   1.33847   1.38375   1.40350
 Alpha virt. eigenvalues --    1.41616   1.43520   1.46783   1.50879   1.51898
 Alpha virt. eigenvalues --    1.53701   1.55220   1.55818   1.57685   1.58316
 Alpha virt. eigenvalues --    1.60223   1.60516   1.61961   1.63957   1.65516
 Alpha virt. eigenvalues --    1.68121   1.71415   1.74697   1.77996   1.79801
 Alpha virt. eigenvalues --    1.82748   1.89467   1.95443   2.02259   2.04710
 Alpha virt. eigenvalues --    2.04980   2.06952   2.12691   2.15155   2.20470
 Alpha virt. eigenvalues --    2.24281   2.32194   2.33817   2.37028   2.38051
 Alpha virt. eigenvalues --    2.40763   2.44818   2.48946   2.50824   2.54289
 Alpha virt. eigenvalues --    2.56573   2.58944   2.62113   2.70526   2.73875
 Alpha virt. eigenvalues --    2.82992   2.85722   2.87392   2.93028   2.94233
 Alpha virt. eigenvalues --    2.99893   3.00871   3.09532   3.13663   3.15498
 Alpha virt. eigenvalues --    3.17680   3.18287   3.20045   3.24876   3.25854
 Alpha virt. eigenvalues --    3.28788   3.30299   3.34470   3.35184   3.48391
 Alpha virt. eigenvalues --    3.51391   3.66823   3.87521   3.90893   3.97986
 Alpha virt. eigenvalues --    4.02899   4.05791   4.14826   4.92554   4.96439
 Alpha virt. eigenvalues --    5.04609   5.56868  23.40347  23.61826  23.62810
 Alpha virt. eigenvalues --   23.65254  23.78006  23.82624  24.00528  35.65858
 Alpha virt. eigenvalues --   49.97048
     Molecular Orbital Coefficients:
                          30        31        32        33        34
                           O         O         O         O         O
     Eigenvalues --    -0.33533  -0.33256  -0.32916  -0.26759  -0.21738
   1 1   C  1S          0.00144   0.00017  -0.00010  -0.01023   0.00687
   2        2S          0.00230   0.00027  -0.00014  -0.01590   0.01074
   3        2PX        -0.02895  -0.03332  -0.11331   0.06851  -0.03760
   4        2PY        -0.04355  -0.12647   0.07093   0.03029   0.00033
   5        2PZ         0.10379   0.02588   0.05231   0.06805  -0.03970
   6        3S         -0.00730  -0.00106   0.00039   0.03840  -0.02676
   7        3PX        -0.04194  -0.04956  -0.16589   0.09567  -0.05753
   8        3PY        -0.06458  -0.18482   0.10510   0.04890  -0.00684
   9        3PZ         0.15277   0.03719   0.07503   0.09773  -0.05395
  10        4S          0.00609  -0.00909   0.00515   0.21392  -0.12993
  11        4PX        -0.03332  -0.02961  -0.13411   0.16932  -0.05791
  12        4PY        -0.06105  -0.11396   0.07137   0.02155   0.05835
  13        4PZ         0.12226   0.01452   0.06293   0.09988  -0.10750
  14        5D 0       -0.00499  -0.01343  -0.00474   0.00427  -0.00047
  15        5D+1        0.01182   0.00283  -0.00744   0.00626  -0.00288
  16        5D-1        0.01077   0.00853   0.00639   0.00045  -0.00438
  17        5D+2        0.00241  -0.01402   0.01798   0.00319   0.00236
  18        5D-2       -0.00727  -0.00395  -0.01154   0.00320  -0.00307
  19 2   C  1S         -0.00958   0.00179   0.00080  -0.01551  -0.00800
  20        2S         -0.01539   0.00308   0.00135  -0.02512  -0.01302
  21        2PX        -0.02619   0.01838   0.02891  -0.02953   0.03066
  22        2PY        -0.01834   0.02421  -0.00985  -0.02273  -0.04196
  23        2PZ        -0.04240   0.02169   0.00575  -0.03326   0.04618
  24        3S          0.04446  -0.00915  -0.00403   0.07887   0.04057
  25        3PX        -0.03795   0.02681   0.03752  -0.04252   0.05697
  26        3PY        -0.02500   0.03136  -0.01204  -0.02921  -0.06940
  27        3PZ        -0.05916   0.03201   0.00732  -0.06197   0.07523
  28        4S          0.06330  -0.01853   0.00212   0.02214   0.05682
  29        4PX        -0.01244  -0.00537   0.05184  -0.00216  -0.01586
  30        4PY        -0.00118  -0.00284  -0.03318   0.01317  -0.07502
  31        4PZ        -0.05234   0.02439   0.00376   0.04285   0.00463
  32        5D 0       -0.00097  -0.01452  -0.01015  -0.00025  -0.00583
  33        5D+1        0.00662  -0.00172   0.00117   0.03472  -0.00054
  34        5D-1        0.00298   0.01050  -0.00603   0.04463  -0.01832
  35        5D+2        0.00760  -0.00961   0.01828   0.01224  -0.02384
  36        5D-2       -0.00164   0.00987   0.00650  -0.00104  -0.01829
  37 3   O  1S         -0.00037   0.00249  -0.00049   0.00016   0.00020
  38        2S         -0.00055   0.00412  -0.00083   0.00027   0.00043
  39        2PX         0.01694  -0.04172   0.07078   0.04122  -0.09021
  40        2PY         0.01986  -0.03545  -0.05484  -0.01980   0.07284
  41        2PZ        -0.02880   0.01807  -0.00763   0.24144  -0.05844
  42        3S          0.00119  -0.01302   0.00327  -0.00000  -0.00388
  43        3PX         0.02284  -0.05637   0.10213   0.05748  -0.12738
  44        3PY         0.02778  -0.04639  -0.07862  -0.02801   0.10117
  45        3PZ        -0.04302   0.02645  -0.01077   0.34364  -0.08154
  46        4S          0.00029  -0.01618   0.00084  -0.01309   0.03085
  47        4PX         0.02515  -0.05797   0.09647   0.06376  -0.15134
  48        4PY         0.02536  -0.04356  -0.07266  -0.02797   0.11114
  49        4PZ        -0.03561   0.02078  -0.01186   0.35451  -0.09401
  50        5D 0        0.00137  -0.00198  -0.00067  -0.00033  -0.00034
  51        5D+1        0.00212  -0.00104  -0.00032  -0.00593   0.00068
  52        5D-1        0.00298  -0.00150   0.00064  -0.00958   0.00015
  53        5D+2        0.00125  -0.00043  -0.00634  -0.00096   0.00311
  54        5D-2       -0.00191   0.00301  -0.00238  -0.00171   0.00098
  55 4   C  1S          0.00973   0.00495   0.00089   0.03954   0.01940
  56        2S          0.01559   0.00782   0.00135   0.06368   0.03131
  57        2PX         0.07197  -0.02618  -0.02451   0.06428   0.11583
  58        2PY         0.04895  -0.04965  -0.03099  -0.06112  -0.00265
  59        2PZ         0.05319  -0.02661  -0.02337  -0.00674  -0.13315
  60        3S         -0.04337  -0.02021  -0.00323  -0.18829  -0.07793
  61        3PX         0.10505  -0.04006  -0.03776   0.08607   0.17326
  62        3PY         0.07616  -0.07015  -0.04364  -0.08885   0.00212
  63        3PZ         0.07891  -0.04079  -0.03651  -0.01735  -0.19486
  64        4S         -0.05131  -0.05351  -0.03014  -0.21932  -0.21405
  65        4PX         0.08803  -0.02880  -0.03332   0.12541   0.18554
  66        4PY         0.05737  -0.05115  -0.03260  -0.07149  -0.01827
  67        4PZ         0.05677  -0.02694  -0.02228  -0.02510  -0.21694
  68        5D 0        0.00440  -0.00251   0.00050   0.00300   0.00521
  69        5D+1        0.01096  -0.00702  -0.00612  -0.00027  -0.01436
  70        5D-1       -0.00676   0.00261   0.00031  -0.00446  -0.00054
  71        5D+2        0.02178  -0.01376  -0.00986  -0.00320   0.00470
  72        5D-2       -0.00109  -0.00064   0.00198  -0.00466  -0.00058
  73 5   N  1S         -0.00295  -0.00217   0.00075  -0.01049  -0.00515
  74        2S         -0.00485  -0.00358   0.00120  -0.01738  -0.00868
  75        2PX         0.07285  -0.05361  -0.04716  -0.04592  -0.02116
  76        2PY         0.10090  -0.05165  -0.04728   0.00474   0.00924
  77        2PZ         0.07289  -0.04181  -0.01835  -0.00140   0.02361
  78        3S          0.01530   0.01099  -0.00387   0.05623   0.02975
  79        3PX         0.10750  -0.07903  -0.07093  -0.06785  -0.03356
  80        3PY         0.14850  -0.07598  -0.06958   0.00672   0.01541
  81        3PZ         0.10820  -0.06165  -0.02696  -0.00070   0.03731
  82        4S          0.01327   0.02157   0.00182   0.04036   0.03819
  83        4PX         0.11132  -0.07516  -0.07080  -0.03757  -0.03181
  84        4PY         0.13460  -0.07593  -0.05877  -0.04389   0.00680
  85        4PZ         0.10571  -0.05945  -0.03055   0.01394   0.04546
  86        5D 0       -0.00349   0.00203   0.00234   0.00292   0.01425
  87        5D+1       -0.00776   0.00481   0.00399   0.00373   0.01234
  88        5D-1        0.00252  -0.00254  -0.00279  -0.00597  -0.02393
  89        5D+2       -0.01549   0.00840   0.00614  -0.00192  -0.01554
  90        5D-2        0.00005  -0.00085   0.00015   0.00201   0.00984
  91 6   C  1S          0.00063   0.00004   0.00005   0.00269   0.00012
  92        2S          0.00104   0.00007   0.00007   0.00450   0.00020
  93        2PX        -0.04659   0.02526   0.01244  -0.01129  -0.09077
  94        2PY        -0.05488   0.02579   0.02189  -0.00921  -0.01894
  95        2PZ        -0.03007   0.02230   0.02669   0.03984   0.13488
  96        3S         -0.00366  -0.00019   0.00001  -0.01642   0.00041
  97        3PX        -0.07241   0.03921   0.01915  -0.01480  -0.13924
  98        3PY        -0.08634   0.04076   0.03439  -0.01684  -0.02704
  99        3PZ        -0.04663   0.03453   0.04149   0.06245   0.20400
 100        4S         -0.00683   0.00040   0.00553  -0.04361  -0.00436
 101        4PX        -0.05892   0.03580   0.01294  -0.01208  -0.15788
 102        4PY        -0.06940   0.03056   0.02970  -0.01795  -0.04296
 103        4PZ        -0.03780   0.03164   0.03183   0.06668   0.24928
 104        5D 0       -0.00802   0.00436   0.00258  -0.00032  -0.00441
 105        5D+1       -0.01430   0.00769   0.00573   0.00023  -0.00360
 106        5D-1        0.00575  -0.00234  -0.00069   0.00285   0.00671
 107        5D+2       -0.02425   0.01446   0.01251   0.00586   0.00305
 108        5D-2        0.00132  -0.00048  -0.00160  -0.00049  -0.00296
 109 7   H  1S          0.07502  -0.04045  -0.03356  -0.00539   0.00183
 110        2S          0.10427  -0.05576  -0.04833  -0.00627   0.00341
 111        3S          0.05132  -0.03277  -0.02232  -0.00338  -0.00145
 112 8   H  1S         -0.07254   0.04200   0.03297   0.01139  -0.00117
 113        2S         -0.10147   0.05824   0.04637   0.01714   0.00141
 114        3S         -0.04797   0.02606   0.02434   0.01250  -0.01209
 115 9   C  1S         -0.00361   0.00051  -0.01505   0.00272  -0.00517
 116        2S         -0.00563   0.00076  -0.02352   0.00436  -0.00839
 117        2PX         0.02731   0.01377   0.11877  -0.03329   0.01954
 118        2PY         0.01633   0.06284  -0.05497  -0.00401  -0.01150
 119        2PZ        -0.05683  -0.01166  -0.04593  -0.00353   0.01340
 120        3S          0.01526  -0.00135   0.06476  -0.01409   0.02543
 121        3PX         0.04004   0.02096   0.17722  -0.04926   0.03083
 122        3PY         0.02496   0.09332  -0.08200  -0.00478  -0.01802
 123        3PZ        -0.08546  -0.01715  -0.06843  -0.00360   0.02010
 124        4S          0.01762  -0.00353   0.08268   0.02217   0.04462
 125        4PX         0.03355   0.01826   0.14236  -0.04773   0.01451
 126        4PY         0.02946   0.08629  -0.06508  -0.01448  -0.04326
 127        4PZ        -0.07843  -0.01798  -0.05724  -0.01565   0.02283
 128        5D 0       -0.00706  -0.00931  -0.00360   0.00105   0.00036
 129        5D+1        0.01325   0.00404   0.00102   0.00745  -0.00754
 130        5D-1        0.00665   0.00736   0.00169  -0.00188  -0.00022
 131        5D+2        0.00084  -0.01356   0.01263   0.00543  -0.00225
 132        5D-2       -0.00572  -0.00898  -0.00479   0.00413  -0.00061
 133 10  H  1S          0.01294   0.06398  -0.04615  -0.01160  -0.00124
 134        2S          0.01404   0.08333  -0.06556  -0.01777   0.00243
 135        3S          0.00905   0.06305  -0.05441  -0.01852   0.02553
 136 11  H  1S          0.02930  -0.01406  -0.00926   0.02717  -0.01975
 137        2S          0.03692  -0.01836  -0.01919   0.03321  -0.03706
 138        3S          0.02830  -0.01504  -0.00694   0.03749  -0.04060
 139 12  H  1S         -0.06369  -0.04627  -0.03797   0.00245   0.01252
 140        2S         -0.08432  -0.05797  -0.05478  -0.00094   0.01768
 141        3S         -0.05689  -0.04628  -0.03480  -0.01281  -0.02921
 142 13  C  1S          0.01142   0.00849   0.00503  -0.00262  -0.00138
 143        2S          0.01784   0.01320   0.00788  -0.00438  -0.00224
 144        2PX         0.03401   0.04446   0.06794  -0.00205   0.00082
 145        2PY         0.03843   0.10012  -0.01670   0.01637  -0.01317
 146        2PZ        -0.10140  -0.03437  -0.03872  -0.00753   0.01106
 147        3S         -0.05029  -0.03555  -0.02240   0.01723   0.00775
 148        3PX         0.05051   0.06701   0.10175  -0.00115   0.00033
 149        3PY         0.05693   0.14995  -0.02543   0.02685  -0.01913
 150        3PZ        -0.15073  -0.05040  -0.05765  -0.01144   0.01495
 151        4S         -0.04891  -0.05719  -0.01704  -0.01751  -0.03528
 152        4PX         0.03922   0.05517   0.09531  -0.04059   0.01837
 153        4PY         0.04144   0.13690  -0.02774   0.04122  -0.03006
 154        4PZ        -0.11687  -0.04658  -0.04314  -0.07148   0.01901
 155        5D 0       -0.00269  -0.01599  -0.00414   0.00323  -0.00225
 156        5D+1        0.00598  -0.00067  -0.01038   0.00337  -0.00371
 157        5D-1        0.00703   0.00240   0.00615  -0.00015   0.00034
 158        5D+2        0.00380  -0.01403   0.01515  -0.00157   0.00156
 159        5D-2       -0.00360  -0.00013  -0.00640  -0.00251   0.00129
 160 14  H  1S          0.03757  -0.02992  -0.01502   0.01218  -0.00950
 161        2S          0.05359  -0.03569  -0.01666   0.00096  -0.00610
 162        3S          0.03340  -0.02564  -0.01126   0.00550  -0.02013
 163 15  H  1S          0.01219   0.08735  -0.02925   0.00832  -0.00544
 164        2S          0.01910   0.11560  -0.03759   0.01256  -0.00298
 165        3S          0.01673   0.07039  -0.03655  -0.04161   0.03332
 166 16  H  1S          0.02992   0.00522   0.07641  -0.00685   0.00624
 167        2S          0.04067   0.01374   0.09796   0.00490   0.00965
 168        3S          0.02969  -0.00123   0.07854  -0.01689   0.00441
 169 17  C  1S         -0.00535  -0.01173   0.00899   0.00413   0.00000
 170        2S         -0.00855  -0.01825   0.01408   0.00658   0.00003
 171        2PX         0.01627   0.00687   0.05491  -0.02127   0.00102
 172        2PY         0.02394   0.12877  -0.06887  -0.03075  -0.00445
 173        2PZ        -0.01321  -0.03452  -0.04438  -0.01689   0.00808
 174        3S          0.02504   0.04963  -0.03846  -0.01874  -0.00271
 175        3PX         0.02471   0.00976   0.08228  -0.03277   0.00011
 176        3PY         0.03471   0.19236  -0.10231  -0.04990  -0.00250
 177        3PZ        -0.01803  -0.05270  -0.06699  -0.02367   0.01409
 178        4S          0.02046   0.07592  -0.05731  -0.05728   0.07234
 179        4PX         0.01387   0.01311   0.08449  -0.04186  -0.00007
 180        4PY         0.01909   0.16938  -0.08587  -0.05730   0.00709
 181        4PZ        -0.03349  -0.04402  -0.06402  -0.03116   0.02254
 182        5D 0       -0.00275  -0.00456  -0.00377   0.00424  -0.00116
 183        5D+1        0.00218   0.00836  -0.00119   0.00600  -0.00151
 184        5D-1        0.01003   0.01317   0.00616   0.00524  -0.00314
 185        5D+2        0.00167  -0.00583   0.01129   0.00231  -0.00033
 186        5D-2       -0.00393  -0.00366  -0.01565   0.00696  -0.00225
 187 18  H  1S          0.01550  -0.01832   0.07664  -0.01409   0.00279
 188        2S          0.02200  -0.03059   0.10202  -0.01740   0.00622
 189        3S          0.00938  -0.01080   0.07035  -0.01553  -0.00919
 190 19  H  1S         -0.03218  -0.07718  -0.03393   0.00100   0.00663
 191        2S         -0.04555  -0.10384  -0.03740   0.00076   0.00304
 192        3S         -0.04967  -0.05818  -0.02192  -0.00458  -0.01234
 193 20  H  1S          0.00578   0.00956   0.00641   0.03346  -0.00887
 194        2S          0.00218   0.00719   0.01272   0.04879  -0.02264
 195        3S          0.00616   0.00610   0.00341   0.04398  -0.01227
                          35        36        37        38        39
                           V         V         V         V         V
     Eigenvalues --    -0.03329  -0.02125   0.00559   0.05326   0.07199
   1 1   C  1S         -0.00494  -0.00977  -0.00253  -0.00192   0.00257
   2        2S         -0.00806  -0.01611  -0.00397  -0.00368   0.00424
   3        2PX         0.01876   0.02045   0.01307   0.00906   0.00254
   4        2PY        -0.00018   0.00040   0.00455   0.00629   0.01681
   5        2PZ         0.01643   0.02283   0.01406   0.00971   0.00185
   6        3S          0.02503   0.05508   0.01079   0.03363  -0.01670
   7        3PX         0.03745   0.02309   0.01107   0.01456  -0.00612
   8        3PY         0.00391  -0.00795   0.01257   0.01397   0.03095
   9        3PZ         0.02222   0.04527   0.01751   0.01932  -0.00139
  10        4S          0.08604   0.13119  -0.00932  -0.13470  -0.06064
  11        4PX        -0.07435   0.08899   0.18567   0.01686   0.15915
  12        4PY        -0.01598   0.08568   0.03989  -0.04841   0.10339
  13        4PZ         0.11135  -0.08085  -0.01020  -0.02949   0.06588
  14        5D 0        0.01026  -0.00642  -0.01936  -0.00459  -0.00293
  15        5D+1       -0.00506  -0.00127   0.00524   0.00105  -0.00112
  16        5D-1        0.01106   0.00567  -0.00338  -0.00405  -0.00272
  17        5D+2       -0.01743  -0.00014   0.01739   0.00386  -0.00010
  18        5D-2        0.00752   0.00138  -0.00311  -0.00270  -0.00001
  19 2   C  1S          0.01430  -0.00465   0.01910   0.00355   0.00508
  20        2S          0.02311  -0.00785   0.03189   0.00594   0.00809
  21        2PX        -0.12573   0.00052   0.12370   0.02916   0.02012
  22        2PY         0.10871  -0.00191  -0.02858  -0.01222  -0.00040
  23        2PZ         0.02976   0.00750  -0.11716  -0.03598  -0.00117
  24        3S         -0.07010   0.02203  -0.12527  -0.01420  -0.01733
  25        3PX        -0.21376   0.00545   0.19618   0.05416   0.03209
  26        3PY         0.17328  -0.00016  -0.05085  -0.02797   0.00018
  27        3PZ         0.05062   0.01412  -0.19509  -0.05179  -0.00626
  28        4S         -0.18996   0.13546   0.08614  -0.19866  -0.22674
  29        4PX        -0.19550   0.02151   0.37708  -0.09053   0.11064
  30        4PY         0.24019   0.04083  -0.12067  -0.02546  -0.01943
  31        4PZ         0.06314   0.03146  -0.06808  -0.30837   0.10083
  32        5D 0        0.00545   0.03125   0.00671   0.00382   0.00041
  33        5D+1       -0.00392   0.01485   0.00170   0.00302   0.00068
  34        5D-1       -0.00731   0.00043   0.00836  -0.00025  -0.00057
  35        5D+2        0.01997   0.01365  -0.01203  -0.00469   0.00211
  36        5D-2        0.01076  -0.02146  -0.00424   0.00550  -0.00529
  37 3   O  1S         -0.00074   0.01084   0.00193  -0.00757   0.00273
  38        2S         -0.00138   0.01775   0.00294  -0.01235   0.00459
  39        2PX         0.11143   0.01541  -0.08748  -0.02674  -0.00038
  40        2PY        -0.07619   0.04532   0.04443   0.01038  -0.00389
  41        2PZ        -0.03796  -0.04354   0.06335   0.00733   0.01426
  42        3S          0.00689  -0.05645  -0.00437   0.03584  -0.01759
  43        3PX         0.15120   0.01912  -0.11757  -0.03729   0.00205
  44        3PY        -0.10449   0.05975   0.05868   0.01679  -0.00885
  45        3PZ        -0.05251  -0.06469   0.08443   0.00622   0.02050
  46        4S         -0.01962  -0.12776  -0.09164   0.14970  -0.00160
  47        4PX         0.23465   0.03515  -0.18819  -0.06212  -0.02215
  48        4PY        -0.15517   0.09456   0.13144  -0.01945  -0.00013
  49        4PZ        -0.07595  -0.07621   0.13875   0.05031   0.01635
  50        5D 0       -0.00006   0.00276   0.00165  -0.00040   0.00004
  51        5D+1        0.00010   0.00142   0.00213   0.00106  -0.00013
  52        5D-1       -0.00079  -0.00008   0.00413   0.00229  -0.00044
  53        5D+2        0.00397   0.00049  -0.00334  -0.00201  -0.00099
  54        5D-2        0.00289  -0.00080  -0.00269   0.00161  -0.00066
  55 4   C  1S         -0.00279   0.00094  -0.01943  -0.01848  -0.00943
  56        2S         -0.00442   0.00155  -0.03129  -0.03003  -0.01539
  57        2PX        -0.01145   0.13195  -0.06590  -0.03237   0.01095
  58        2PY         0.02097   0.14351   0.03244  -0.00670  -0.01852
  59        2PZ         0.00897   0.10122   0.08114   0.01215   0.00386
  60        3S          0.00607   0.00130   0.06257   0.08693   0.06114
  61        3PX        -0.01898   0.20295  -0.08460  -0.03651   0.01320
  62        3PY         0.02510   0.22480   0.02652  -0.01512  -0.01552
  63        3PZ         0.02239   0.15745   0.10368   0.02849   0.00949
  64        4S          0.08049  -0.11406   0.28294   0.49563  -0.08889
  65        4PX        -0.08055   0.29499  -0.18636  -0.01727  -0.09209
  66        4PY         0.10449   0.35980  -0.01678   0.06238   0.03161
  67        4PZ         0.00190   0.25536   0.41009  -0.08207  -0.06369
  68        5D 0       -0.02792  -0.01005  -0.00157   0.00310   0.00284
  69        5D+1        0.00781  -0.01244  -0.01643  -0.00674  -0.00438
  70        5D-1        0.01616  -0.00271   0.03260   0.00376   0.00285
  71        5D+2        0.00549  -0.01767   0.01663   0.00103   0.00246
  72        5D-2       -0.02068   0.00622   0.01160   0.00255   0.00363
  73 5   N  1S         -0.00838  -0.00048   0.01907   0.00337   0.00171
  74        2S         -0.01327  -0.00074   0.03154   0.00557   0.00298
  75        2PX         0.07013  -0.11485   0.08746   0.02402  -0.00753
  76        2PY         0.02106  -0.11846  -0.01912  -0.00169   0.00823
  77        2PZ        -0.13916  -0.07051  -0.10355  -0.02891  -0.00400
  78        3S          0.03436  -0.00011  -0.10269  -0.01376  -0.01029
  79        3PX         0.10359  -0.16683   0.12047   0.03450  -0.01567
  80        3PY         0.02297  -0.17279  -0.03068   0.00129   0.01755
  81        3PZ        -0.19804  -0.10276  -0.13354  -0.04388  -0.00686
  82        4S          0.15854   0.04433  -0.30135  -0.01138   0.16145
  83        4PX         0.17382  -0.27037   0.20489   0.09674  -0.03700
  84        4PY         0.04991  -0.23331   0.02309  -0.07185   0.05881
  85        4PZ        -0.31619  -0.16408  -0.36917  -0.02521  -0.01337
  86        5D 0        0.00647  -0.00739   0.00351  -0.00302  -0.00491
  87        5D+1        0.00573  -0.01348  -0.00387   0.00047   0.00129
  88        5D-1       -0.00860   0.00568   0.00105  -0.00321  -0.00800
  89        5D+2       -0.00807  -0.02460  -0.00185   0.00084  -0.00170
  90        5D-2        0.00883  -0.00083   0.00456  -0.00775  -0.01396
  91 6   C  1S          0.00253   0.00005   0.00041  -0.02223  -0.04907
  92        2S          0.00420   0.00005   0.00066  -0.03619  -0.07971
  93        2PX        -0.07912  -0.00113  -0.06608  -0.00568   0.02906
  94        2PY        -0.02202  -0.01003   0.00026  -0.01776  -0.04415
  95        2PZ         0.12329  -0.02143   0.07843   0.01165   0.01246
  96        3S         -0.01213   0.00142  -0.00614   0.10246   0.21442
  97        3PX        -0.11237  -0.00398  -0.09854  -0.00756   0.02743
  98        3PY        -0.03697  -0.01604  -0.00017  -0.01943  -0.04632
  99        3PZ         0.18238  -0.03223   0.11853   0.00784   0.01026
 100        4S         -0.04171   0.01549   0.05879   0.42748   1.32578
 101        4PX        -0.24565  -0.08184  -0.28707   0.08417   0.24350
 102        4PY        -0.06900  -0.10787   0.07239  -0.18935  -0.34021
 103        4PZ         0.35568  -0.12941   0.24237   0.12724   0.11959
 104        5D 0        0.01077   0.00991   0.00872   0.00194  -0.00166
 105        5D+1        0.00818   0.01853   0.00756   0.00143   0.00104
 106        5D-1       -0.01450  -0.00413  -0.01228  -0.00530   0.00007
 107        5D+2       -0.00664   0.03607  -0.00499  -0.00444  -0.00075
 108        5D-2        0.00895  -0.00296   0.00550   0.00340   0.00017
 109 7   H  1S         -0.00132  -0.04970  -0.00581  -0.00689  -0.02389
 110        2S         -0.00495  -0.14609  -0.02169   0.01073  -0.02992
 111        3S         -0.01155  -0.28641   0.05333  -0.46016  -1.05489
 112 8   H  1S          0.00460   0.04982   0.00311  -0.01270  -0.02652
 113        2S          0.01477   0.14433  -0.00607  -0.02638  -0.03985
 114        3S          0.03376   0.28914   0.09061  -0.34386  -0.96491
 115 9   C  1S          0.01329  -0.00322  -0.00608  -0.03166   0.01730
 116        2S          0.02172  -0.00529  -0.01011  -0.05074   0.02771
 117        2PX        -0.03219  -0.00704   0.04022  -0.03024   0.03436
 118        2PY         0.01410  -0.00981  -0.00638   0.01214  -0.01606
 119        2PZ        -0.00142   0.01237  -0.01496  -0.00899   0.00832
 120        3S         -0.06541   0.01356   0.03659   0.10939  -0.05971
 121        3PX        -0.05170  -0.00531   0.05548  -0.03570   0.04841
 122        3PY         0.02128  -0.01609  -0.01120   0.01644  -0.02046
 123        3PZ        -0.00299   0.02024  -0.01926  -0.00930   0.00967
 124        4S         -0.23290   0.11283   0.06386   1.00629  -0.53503
 125        4PX        -0.06303  -0.04673   0.17900  -0.16762   0.21281
 126        4PY         0.08246  -0.06074  -0.04096   0.06368  -0.11843
 127        4PZ         0.04992   0.07404  -0.10730  -0.08758   0.02603
 128        5D 0       -0.00018  -0.00192  -0.00153  -0.00095   0.00255
 129        5D+1        0.00923   0.00136  -0.00433   0.00020  -0.00229
 130        5D-1        0.00089   0.00042  -0.00156  -0.00031  -0.00182
 131        5D+2        0.00636   0.00175  -0.00616   0.00337   0.00030
 132        5D-2        0.00073   0.00177  -0.00059  -0.00201   0.00147
 133 10  H  1S         -0.00537  -0.00395   0.00598  -0.00736  -0.00077
 134        2S         -0.01508  -0.00725   0.00731  -0.03776   0.00294
 135        3S         -0.04630   0.01538   0.06397  -0.43618   0.32572
 136 11  H  1S          0.02344   0.00161  -0.01456  -0.00218   0.00366
 137        2S          0.06415  -0.00404  -0.01911  -0.04805   0.01515
 138        3S          0.14069   0.00790  -0.07456  -0.51788   0.39158
 139 12  H  1S         -0.00890   0.00250   0.00387  -0.00603   0.00995
 140        2S         -0.02625  -0.01926   0.01098  -0.02716   0.02429
 141        3S          0.05140  -0.14223   0.18285  -0.29269   0.22423
 142 13  C  1S         -0.00312   0.00572   0.01249  -0.02649   0.01839
 143        2S         -0.00494   0.00910   0.02000  -0.04223   0.02928
 144        2PX         0.00274   0.00217   0.00374   0.01058   0.00374
 145        2PY        -0.00291   0.00242   0.01698   0.01596  -0.01354
 146        2PZ         0.00528  -0.01689  -0.01589  -0.04173   0.03244
 147        3S          0.00960  -0.02203  -0.04770   0.08346  -0.05734
 148        3PX         0.00449   0.00493   0.00672   0.01271   0.00379
 149        3PY        -0.00731   0.00599   0.02506   0.02158  -0.01589
 150        3PZ         0.01089  -0.02743  -0.02287  -0.05393   0.04338
 151        4S          0.13671  -0.20321  -0.29849   0.91755  -0.66625
 152        4PX         0.02613   0.04704  -0.00801   0.04854  -0.00407
 153        4PY        -0.02337   0.02448   0.08433   0.09312  -0.07152
 154        4PZ         0.03135  -0.06266  -0.04718  -0.20171   0.15367
 155        5D 0        0.00130   0.00607   0.00434   0.00580  -0.00051
 156        5D+1        0.00038   0.00358   0.00431   0.00041  -0.00142
 157        5D-1        0.00070  -0.00099  -0.00196  -0.00211   0.00155
 158        5D+2       -0.00204  -0.00007   0.00110   0.00190   0.00405
 159        5D-2       -0.00024  -0.00046  -0.00191   0.00089  -0.00140
 160 14  H  1S         -0.00016   0.01398   0.01103   0.00454   0.00514
 161        2S         -0.00504   0.04284   0.03122  -0.02359   0.02150
 162        3S          0.01048   0.05664   0.12522  -0.39825   0.41513
 163 15  H  1S         -0.00038  -0.00401  -0.00124  -0.01035  -0.00241
 164        2S         -0.00086  -0.00972  -0.00145  -0.05270   0.00713
 165        3S         -0.03949   0.04651   0.00367  -0.39379   0.25513
 166 16  H  1S         -0.00068  -0.00484  -0.00336  -0.00753   0.00941
 167        2S         -0.02553  -0.01384   0.02492  -0.03616   0.03101
 168        3S         -0.02710  -0.00582   0.06402  -0.42326   0.26479
 169 17  C  1S         -0.00861  -0.00837   0.01369  -0.02898  -0.00450
 170        2S         -0.01400  -0.01367   0.02272  -0.04615  -0.00689
 171        2PX         0.01157  -0.00914  -0.00705   0.00085   0.01927
 172        2PY         0.02055  -0.00179   0.00181  -0.04764  -0.01051
 173        2PZ         0.00180   0.02007  -0.00573  -0.01592   0.03226
 174        3S          0.04133   0.03676  -0.07119   0.09003   0.00957
 175        3PX         0.01701  -0.01734  -0.01724   0.00318   0.02743
 176        3PY         0.03208  -0.00170  -0.00600  -0.06684  -0.01557
 177        3PZ         0.00358   0.02940  -0.01697  -0.01679   0.04535
 178        4S          0.10447   0.16587  -0.25101   0.98709   0.24193
 179        4PX         0.06463  -0.04566   0.01123  -0.00093   0.03833
 180        4PY         0.02491  -0.02593   0.09539  -0.22611   0.01301
 181        4PZ        -0.04292   0.08882   0.09285  -0.08257   0.14529
 182        5D 0        0.00107  -0.00573  -0.00146   0.00115   0.00136
 183        5D+1       -0.00294  -0.00461   0.00345   0.00392  -0.00349
 184        5D-1       -0.00164  -0.00259   0.00444   0.00589  -0.00005
 185        5D+2       -0.00007  -0.00104   0.00095  -0.00227   0.00451
 186        5D-2       -0.00069   0.00256   0.00231   0.00241  -0.00031
 187 18  H  1S          0.00264  -0.00120  -0.00474  -0.00959   0.00307
 188        2S         -0.00298  -0.01235  -0.01859  -0.03729   0.04894
 189        3S         -0.09658   0.01521   0.14998  -0.52027  -0.22545
 190 19  H  1S         -0.00101   0.01166  -0.00324  -0.01009   0.00129
 191        2S          0.01216  -0.02112  -0.03046  -0.03769   0.04089
 192        3S          0.01785  -0.06388   0.13291  -0.43475  -0.34419
 193 20  H  1S         -0.00818  -0.01059   0.01344   0.00659  -0.00409
 194        2S         -0.01829  -0.02246   0.06618  -0.02353  -0.02267
 195        3S         -0.04289  -0.04942   0.16934  -0.40934   0.21079
     Density Matrix:
                           1         2         3         4         5
   1 1   C  1S          0.65773
   2        2S          0.55872   0.48694
   3        2PX         0.00012   0.00024   0.08021
   4        2PY         0.00007   0.00012   0.00040   0.08156
   5        2PZ         0.00077   0.00122  -0.00166  -0.00128   0.07918
   6        3S         -0.07741  -0.13656  -0.00166  -0.00051  -0.00486
   7        3PX         0.00023   0.00032   0.11900   0.00039  -0.00217
   8        3PY        -0.00013  -0.00021   0.00123   0.12072  -0.00059
   9        3PZ         0.00075   0.00125  -0.00207  -0.00150   0.11718
  10        4S         -0.11262  -0.15152   0.01947   0.00813   0.02083
  11        4PX        -0.00328  -0.00407   0.09564   0.00349   0.00194
  12        4PY        -0.00005   0.00085  -0.00558   0.08507  -0.01288
  13        4PZ        -0.00388  -0.00478  -0.00016  -0.00208   0.09229
  14        5D 0        0.00011   0.00014   0.00516   0.00490   0.00004
  15        5D+1        0.00021   0.00034   0.00552  -0.00156   0.00689
  16        5D-1       -0.00001  -0.00001  -0.00155  -0.00222   0.00602
  17        5D+2        0.00009   0.00015  -0.00243   0.00744   0.00357
  18        5D-2        0.00002   0.00003   0.00518   0.00028  -0.00140
  19 2   C  1S          0.00377   0.00581  -0.01090  -0.00422  -0.01394
  20        2S          0.00588   0.00901  -0.01750  -0.00677  -0.02236
  21        2PX         0.00781   0.01229  -0.01666  -0.01135  -0.03232
  22        2PY         0.00261   0.00405  -0.01168   0.00044  -0.01017
  23        2PZ         0.01068   0.01693  -0.03376  -0.00943  -0.03600
  24        3S         -0.01555  -0.02373   0.05086   0.02011   0.06484
  25        3PX         0.01306   0.01980  -0.02198  -0.01782  -0.04812
  26        3PY         0.00421   0.00606  -0.01607   0.00279  -0.01227
  27        3PZ         0.01874   0.02852  -0.05231  -0.01443  -0.05344
  28        4S          0.00625   0.00607   0.03606   0.01313   0.04583
  29        4PX        -0.00357  -0.00314  -0.01597  -0.00331  -0.01644
  30        4PY         0.00021  -0.00014   0.00120  -0.00512   0.00224
  31        4PZ        -0.00938  -0.00949  -0.01425  -0.00055  -0.02703
  32        5D 0       -0.00161  -0.00219   0.00494   0.00333  -0.00348
  33        5D+1       -0.00378  -0.00538   0.00256   0.00231   0.00519
  34        5D-1       -0.00298  -0.00433   0.00559  -0.00367   0.00602
  35        5D+2       -0.00219  -0.00312  -0.00092   0.00426   0.00514
  36        5D-2       -0.00038  -0.00064  -0.00030  -0.00409   0.00255
  37 3   O  1S         -0.00060  -0.00086   0.00192   0.00187   0.00107
  38        2S         -0.00094  -0.00140   0.00309   0.00299   0.00175
  39        2PX        -0.00385  -0.00599   0.00339   0.00852   0.01278
  40        2PY        -0.00069  -0.00104   0.00613   0.00176  -0.00012
  41        2PZ        -0.00664  -0.01039   0.01878   0.00485   0.01462
  42        3S          0.00267   0.00419  -0.00933  -0.00904  -0.00512
  43        3PX        -0.00485  -0.00776   0.00438   0.01120   0.01757
  44        3PY        -0.00046  -0.00094   0.00879   0.00159   0.00053
  45        3PZ        -0.00925  -0.01445   0.02598   0.00676   0.01982
  46        4S          0.00082   0.00146  -0.01123  -0.00858  -0.00735
  47        4PX        -0.00537  -0.00865   0.00843   0.01501   0.02366
  48        4PY         0.00054   0.00089   0.00732   0.00164  -0.00317
  49        4PZ        -0.00980  -0.01615   0.03542   0.01062   0.02922
  50        5D 0       -0.00009  -0.00019   0.00058   0.00013   0.00044
  51        5D+1       -0.00017  -0.00023   0.00041   0.00027   0.00053
  52        5D-1       -0.00030  -0.00036   0.00063   0.00008   0.00089
  53        5D+2       -0.00023  -0.00035   0.00065   0.00023   0.00103
  54        5D-2        0.00004   0.00014  -0.00040   0.00004  -0.00060
  55 4   C  1S         -0.00169  -0.00261   0.00298   0.00041   0.00603
  56        2S         -0.00263  -0.00416   0.00482   0.00071   0.00966
  57        2PX        -0.00088  -0.00138  -0.00170   0.00189   0.00108
  58        2PY         0.00244   0.00381  -0.00520  -0.00013  -0.01073
  59        2PZ        -0.00379  -0.00597   0.00866  -0.00056   0.00944
  60        3S          0.00732   0.01199  -0.01574  -0.00252  -0.02931
  61        3PX        -0.00011  -0.00061  -0.00313   0.00251  -0.00060
  62        3PY         0.00249   0.00441  -0.00906  -0.00108  -0.01522
  63        3PZ        -0.00420  -0.00715   0.01215  -0.00035   0.01248
  64        4S          0.01742   0.02172  -0.00504  -0.00273  -0.02993
  65        4PX        -0.00044  -0.00184   0.00401   0.00385   0.00831
  66        4PY         0.00319   0.00444  -0.00707  -0.00106  -0.00951
  67        4PZ        -0.00816  -0.01144   0.01504  -0.00122   0.01601
  68        5D 0       -0.00064  -0.00084   0.00202  -0.00042   0.00216
  69        5D+1       -0.00066  -0.00106   0.00184   0.00037   0.00315
  70        5D-1        0.00016   0.00024  -0.00049  -0.00011  -0.00137
  71        5D+2       -0.00029  -0.00047   0.00063   0.00015   0.00095
  72        5D-2        0.00023   0.00038  -0.00081  -0.00096  -0.00168
  73 5   N  1S          0.00035   0.00054  -0.00040  -0.00033  -0.00149
  74        2S          0.00058   0.00091  -0.00068  -0.00054  -0.00248
  75        2PX        -0.00002  -0.00003   0.00002  -0.00105  -0.00018
  76        2PY        -0.00162  -0.00262   0.00318   0.00026   0.00682
  77        2PZ        -0.00094  -0.00147   0.00446  -0.00176   0.00507
  78        3S         -0.00179  -0.00292   0.00264   0.00157   0.00805
  79        3PX         0.00004   0.00007  -0.00007  -0.00112  -0.00027
  80        3PY        -0.00253  -0.00401   0.00469  -0.00007   0.01015
  81        3PZ        -0.00161  -0.00231   0.00660  -0.00234   0.00740
  82        4S         -0.00381  -0.00444  -0.00309  -0.00093   0.00774
  83        4PX         0.00049  -0.00039   0.00463  -0.00071   0.00361
  84        4PY        -0.00301  -0.00326  -0.00131  -0.00178   0.00458
  85        4PZ         0.00049  -0.00039   0.00758  -0.00187   0.00824
  86        5D 0        0.00028   0.00041  -0.00056   0.00010  -0.00057
  87        5D+1        0.00011   0.00023  -0.00063   0.00007  -0.00051
  88        5D-1       -0.00028  -0.00046   0.00115  -0.00012   0.00100
  89        5D+2       -0.00004  -0.00009   0.00070  -0.00007   0.00063
  90        5D-2        0.00026   0.00033  -0.00034   0.00027  -0.00047
  91 6   C  1S         -0.00011  -0.00014   0.00020   0.00020   0.00052
  92        2S         -0.00015  -0.00023   0.00034   0.00033   0.00084
  93        2PX        -0.00081  -0.00128   0.00321  -0.00002   0.00335
  94        2PY         0.00043   0.00069  -0.00026  -0.00022  -0.00130
  95        2PZ         0.00126   0.00198  -0.00507   0.00102  -0.00468
  96        3S          0.00031   0.00073  -0.00149  -0.00112  -0.00300
  97        3PX        -0.00106  -0.00183   0.00523   0.00009   0.00542
  98        3PY         0.00058   0.00107  -0.00088  -0.00057  -0.00258
  99        3PZ         0.00181   0.00285  -0.00747   0.00168  -0.00677
 100        4S          0.00006   0.00113  -0.00577  -0.00185  -0.00658
 101        4PX        -0.00154  -0.00257   0.00808  -0.00104   0.00843
 102        4PY         0.00009   0.00058  -0.00063   0.00056  -0.00138
 103        4PZ         0.00247   0.00395  -0.01033   0.00166  -0.00990
 104        5D 0        0.00008   0.00011  -0.00027   0.00016  -0.00033
 105        5D+1        0.00016   0.00023  -0.00041   0.00014  -0.00066
 106        5D-1       -0.00011  -0.00013   0.00020  -0.00004   0.00033
 107        5D+2        0.00018   0.00030  -0.00053   0.00023  -0.00088
 108        5D-2       -0.00003  -0.00005  -0.00006   0.00009   0.00003
 109 7   H  1S         -0.00051  -0.00083   0.00119  -0.00037   0.00201
 110        2S         -0.00092  -0.00140   0.00244  -0.00075   0.00401
 111        3S         -0.00049  -0.00074   0.00175   0.00108   0.00306
 112 8   H  1S          0.00038   0.00059  -0.00099   0.00052  -0.00150
 113        2S          0.00070   0.00101  -0.00194   0.00100  -0.00322
 114        3S          0.00010   0.00004  -0.00022   0.00117  -0.00068
 115 9   C  1S          0.00321   0.00501   0.01366  -0.00469  -0.00297
 116        2S          0.00501   0.00772   0.02180  -0.00746  -0.00474
 117        2PX        -0.01383  -0.02185  -0.05584   0.01997   0.01319
 118        2PY         0.00494   0.00781   0.02056  -0.00529  -0.00468
 119        2PZ         0.00318   0.00504   0.01378  -0.00478  -0.00092
 120        3S         -0.01307  -0.01990  -0.06039   0.02002   0.01265
 121        3PX        -0.02236  -0.03463  -0.08160   0.02994   0.01960
 122        3PY         0.00799   0.01237   0.03097  -0.00568  -0.00678
 123        3PZ         0.00523   0.00808   0.02067  -0.00717   0.00069
 124        4S          0.01064   0.01159  -0.03923   0.01782   0.00900
 125        4PX        -0.00478  -0.00947  -0.06337   0.01947   0.01246
 126        4PY         0.00131   0.00266   0.01952  -0.01808  -0.00041
 127        4PZ         0.00107   0.00209   0.01175  -0.00274  -0.01232
 128        5D 0        0.00160   0.00226   0.00200   0.00031  -0.00220
 129        5D+1        0.00136   0.00192   0.00236  -0.00114   0.00501
 130        5D-1       -0.00057  -0.00079  -0.00133  -0.00112  -0.00054
 131        5D+2       -0.00253  -0.00357  -0.00161   0.00503   0.00212
 132        5D-2        0.00199   0.00279   0.00389   0.00311  -0.00114
 133 10  H  1S          0.00250   0.00407   0.00651  -0.00677  -0.00222
 134        2S          0.00340   0.00573   0.01162  -0.01360  -0.00481
 135        3S          0.00300   0.00479   0.00713  -0.01622  -0.00747
 136 11  H  1S          0.00244   0.00396   0.00824  -0.00099   0.00179
 137        2S          0.00332   0.00561   0.01644  -0.00217   0.00444
 138        3S          0.00225   0.00357   0.01549   0.00121   0.00972
 139 12  H  1S          0.00240   0.00392   0.00838  -0.00031  -0.00513
 140        2S          0.00337   0.00564   0.01532  -0.00110  -0.01088
 141        3S          0.00192   0.00301   0.01413   0.00222  -0.01049
 142 13  C  1S          0.00346   0.00542  -0.00532  -0.00715   0.01200
 143        2S          0.00542   0.00837  -0.00848  -0.01141   0.01918
 144        2PX         0.00510   0.00807  -0.00517  -0.01070   0.01933
 145        2PY         0.00683   0.01082  -0.00983  -0.01245   0.02719
 146        2PZ        -0.01290  -0.02042   0.01957   0.02687  -0.04368
 147        3S         -0.01405  -0.02153   0.02368   0.03162  -0.05311
 148        3PX         0.00829   0.01283  -0.00562  -0.01606   0.02891
 149        3PY         0.01119   0.01728  -0.01467  -0.01643   0.04059
 150        3PZ        -0.02083  -0.03223   0.02926   0.03997  -0.06291
 151        4S          0.00806   0.00788   0.01411   0.01935  -0.02944
 152        4PX         0.00242   0.00454  -0.02054  -0.00937   0.01360
 153        4PY         0.00161   0.00349  -0.00445  -0.02322   0.02783
 154        4PZ        -0.00450  -0.00875   0.01315   0.02366  -0.05556
 155        5D 0       -0.00190  -0.00263   0.00327   0.00425   0.00014
 156        5D+1        0.00193   0.00275   0.00304  -0.00254   0.00275
 157        5D-1        0.00272   0.00383  -0.00263   0.00057   0.00354
 158        5D+2        0.00039   0.00056  -0.00254   0.00300   0.00110
 159        5D-2       -0.00114  -0.00157  -0.00079  -0.00049  -0.00245
 160 14  H  1S          0.00268   0.00437  -0.00036  -0.00273   0.00778
 161        2S          0.00440   0.00730  -0.00167  -0.00493   0.01333
 162        3S          0.00294   0.00470   0.00296  -0.00244   0.01412
 163 15  H  1S          0.00212   0.00349  -0.00173  -0.00706   0.00615
 164        2S          0.00313   0.00527  -0.00379  -0.01420   0.01038
 165        3S          0.00385   0.00595  -0.00822  -0.01729  -0.00019
 166 16  H  1S          0.00242   0.00396  -0.00613  -0.00188   0.00701
 167        2S          0.00328   0.00542  -0.01044  -0.00343   0.01388
 168        3S          0.00264   0.00418  -0.01522   0.00048   0.01052
 169 17  C  1S          0.00338   0.00529   0.00037   0.01483   0.00191
 170        2S          0.00528   0.00815   0.00062   0.02366   0.00309
 171        2PX        -0.00029  -0.00048   0.00188  -0.00156  -0.00015
 172        2PY        -0.01512  -0.02392  -0.00189  -0.06525  -0.00967
 173        2PZ        -0.00259  -0.00411   0.00016  -0.01044   0.00142
 174        3S         -0.01366  -0.02095  -0.00214  -0.06509  -0.00861
 175        3PX        -0.00043  -0.00067   0.00470  -0.00241  -0.00040
 176        3PY        -0.02439  -0.03769  -0.00352  -0.09556  -0.01534
 177        3PZ        -0.00395  -0.00619  -0.00004  -0.01555   0.00384
 178        4S          0.01060   0.01219  -0.00692  -0.04809  -0.01610
 179        4PX        -0.00013  -0.00037  -0.01148  -0.00224   0.00091
 180        4PY        -0.00519  -0.01008  -0.00403  -0.07473  -0.01325
 181        4PZ        -0.00155  -0.00266   0.00222  -0.01144  -0.01181
 182        5D 0        0.00184   0.00260   0.00076   0.00208   0.00129
 183        5D+1       -0.00006  -0.00004   0.00132  -0.00047   0.00088
 184        5D-1       -0.00090  -0.00125  -0.00038  -0.00254   0.00509
 185        5D+2        0.00337   0.00472  -0.00014   0.00430   0.00173
 186        5D-2       -0.00012  -0.00019   0.00589  -0.00035  -0.00028
 187 18  H  1S          0.00247   0.00402  -0.00385   0.00858   0.00204
 188        2S          0.00350   0.00581  -0.00822   0.01666   0.00364
 189        3S          0.00248   0.00389  -0.01041   0.01262   0.00331
 190 19  H  1S          0.00230   0.00373   0.00238   0.00960  -0.00177
 191        2S          0.00318   0.00534   0.00381   0.01856  -0.00426
 192        3S          0.00208   0.00311   0.00486   0.01437  -0.00821
 193 20  H  1S          0.00257   0.00419   0.00234   0.00705   0.00348
 194        2S          0.00350   0.00587   0.00564   0.01362   0.00836
 195        3S          0.00242   0.00391   0.00826   0.00962   0.01064
                           6         7         8         9        10
   6        3S          0.41631
   7        3PX        -0.00185   0.17699
   8        3PY         0.00036   0.00149   0.17927
   9        3PZ        -0.00574  -0.00273  -0.00045   0.17388
  10        4S          0.33368   0.02723   0.01635   0.02902   0.38665
  11        4PX         0.00601   0.13915   0.00687   0.00254   0.07295
  12        4PY        -0.00499  -0.00885   0.12351  -0.01770  -0.01335
  13        4PZ         0.00657   0.00030  -0.00009   0.13407   0.06549
  14        5D 0       -0.00034   0.00790   0.00748   0.00006  -0.00024
  15        5D+1       -0.00101   0.00844  -0.00235   0.01057  -0.00139
  16        5D-1       -0.00002  -0.00235  -0.00343   0.00919  -0.00018
  17        5D+2       -0.00044  -0.00373   0.01134   0.00549  -0.00029
  18        5D-2       -0.00008   0.00791   0.00040  -0.00210   0.00063
  19 2   C  1S         -0.01389  -0.01776  -0.00633  -0.02348  -0.00516
  20        2S         -0.02183  -0.02759  -0.01004  -0.03632  -0.00788
  21        2PX        -0.03257  -0.02471  -0.01740  -0.04832  -0.03036
  22        2PY        -0.00992  -0.01780   0.00062  -0.01481  -0.00976
  23        2PZ        -0.04659  -0.05128  -0.01467  -0.05411  -0.04124
  24        3S          0.05840   0.07716   0.02941   0.10117   0.02060
  25        3PX        -0.05030  -0.03260  -0.02745  -0.07176  -0.04925
  26        3PY        -0.01351  -0.02455   0.00419  -0.01794  -0.00993
  27        3PZ        -0.07474  -0.07922  -0.02265  -0.08006  -0.07233
  28        4S         -0.00701   0.05551   0.01826   0.07195  -0.04971
  29        4PX         0.00129  -0.02378  -0.00431  -0.02638   0.02548
  30        4PY         0.00215   0.00103  -0.00641   0.00213   0.02702
  31        4PZ         0.00910  -0.02335  -0.00045  -0.04190   0.04175
  32        5D 0        0.00481   0.00725   0.00491  -0.00523   0.00636
  33        5D+1        0.01266   0.00333   0.00370   0.00745   0.02430
  34        5D-1        0.01032   0.00762  -0.00476   0.00833   0.03055
  35        5D+2        0.00728  -0.00136   0.00679   0.00702   0.01908
  36        5D-2        0.00179  -0.00019  -0.00568   0.00362   0.00446
  37 3   O  1S          0.00200   0.00192   0.00205   0.00116   0.00237
  38        2S          0.00339   0.00343   0.00342   0.00222   0.00278
  39        2PX         0.01530   0.00587   0.01504   0.01594   0.06535
  40        2PY         0.00319   0.00917   0.00177   0.00041  -0.02305
  41        2PZ         0.02593   0.02381   0.01028   0.01849   0.13928
  42        3S         -0.01052  -0.01160  -0.01083  -0.00770  -0.00347
  43        3PX         0.02045   0.00770   0.01998   0.02178   0.09134
  44        3PY         0.00392   0.01312   0.00116   0.00167  -0.03342
  45        3PZ         0.03587   0.03274   0.01439   0.02485   0.19734
  46        4S         -0.00363  -0.01464  -0.01079  -0.01125  -0.00769
  47        4PX         0.02290   0.01377   0.02588   0.03109   0.09594
  48        4PY        -0.00184   0.01099   0.00104  -0.00340  -0.04097
  49        4PZ         0.04304   0.04707   0.02031   0.03902   0.20443
  50        5D 0        0.00068   0.00089   0.00022   0.00058   0.00084
  51        5D+1        0.00059   0.00075   0.00031   0.00091  -0.00289
  52        5D-1        0.00070   0.00118   0.00001   0.00149  -0.00461
  53        5D+2        0.00094   0.00091   0.00027   0.00162  -0.00147
  54        5D-2       -0.00063  -0.00063  -0.00004  -0.00069  -0.00266
  55 4   C  1S          0.00740   0.00363   0.00073   0.00804   0.01567
  56        2S          0.01197   0.00612   0.00113   0.01354   0.02546
  57        2PX         0.00423  -0.00399   0.00110   0.00246   0.00978
  58        2PY        -0.01074  -0.00743  -0.00097  -0.01571  -0.01901
  59        2PZ         0.01663   0.01272   0.00068   0.01232   0.04844
  60        3S         -0.03516  -0.02106  -0.00386  -0.04309  -0.07927
  61        3PX         0.00377  -0.00671   0.00110   0.00050   0.00862
  62        3PY        -0.01411  -0.01307  -0.00285  -0.02224  -0.02723
  63        3PZ         0.02168   0.01791   0.00159   0.01617   0.06576
  64        4S         -0.04190  -0.00435  -0.00225  -0.04543  -0.06271
  65        4PX         0.00873   0.00369   0.00353   0.01365   0.01943
  66        4PY        -0.01031  -0.01011  -0.00223  -0.01408  -0.01851
  67        4PZ         0.02645   0.02282   0.00070   0.02159   0.06576
  68        5D 0        0.00155   0.00305  -0.00063   0.00322   0.00116
  69        5D+1        0.00291   0.00271   0.00071   0.00449   0.00622
  70        5D-1       -0.00046  -0.00063  -0.00021  -0.00196  -0.00317
  71        5D+2        0.00138   0.00091  -0.00001   0.00151   0.00105
  72        5D-2       -0.00111  -0.00114  -0.00142  -0.00257  -0.00119
  73 5   N  1S         -0.00109  -0.00048  -0.00072  -0.00202  -0.00699
  74        2S         -0.00204  -0.00079  -0.00106  -0.00338  -0.01033
  75        2PX        -0.00006   0.00037  -0.00217   0.00003  -0.00221
  76        2PY         0.00801   0.00411  -0.00060   0.01062   0.01352
  77        2PZ         0.00376   0.00619  -0.00306   0.00694   0.01079
  78        3S          0.00756   0.00303   0.00278   0.01115   0.02827
  79        3PX        -0.00038   0.00038  -0.00258   0.00009  -0.00352
  80        3PY         0.01196   0.00609  -0.00157   0.01576   0.02011
  81        3PZ         0.00537   0.00912  -0.00419   0.01013   0.01566
  82        4S          0.00711  -0.00539  -0.00140   0.01114   0.01634
  83        4PX         0.00477   0.00703  -0.00168   0.00567   0.00859
  84        4PY         0.00498  -0.00203  -0.00414   0.00738  -0.00147
  85        4PZ         0.00442   0.01055  -0.00346   0.01165   0.01531
  86        5D 0       -0.00099  -0.00088  -0.00002  -0.00071  -0.00340
  87        5D+1       -0.00080  -0.00098  -0.00000  -0.00065  -0.00274
  88        5D-1        0.00130   0.00182   0.00008   0.00130   0.00408
  89        5D+2        0.00031   0.00118   0.00017   0.00085   0.00091
  90        5D-2       -0.00061  -0.00056   0.00027  -0.00060  -0.00213
  91 6   C  1S          0.00029   0.00016   0.00036   0.00053   0.00128
  92        2S          0.00069   0.00032   0.00053   0.00103   0.00162
  93        2PX         0.00371   0.00526   0.00096   0.00491   0.01115
  94        2PY        -0.00233  -0.00015   0.00011  -0.00217  -0.00162
  95        2PZ        -0.00498  -0.00838  -0.00005  -0.00594  -0.02037
  96        3S         -0.00312  -0.00177  -0.00162  -0.00434  -0.00501
  97        3PX         0.00574   0.00849   0.00169   0.00789   0.01842
  98        3PY        -0.00399  -0.00091  -0.00025  -0.00412  -0.00484
  99        3PZ        -0.00721  -0.01240   0.00015  -0.00854  -0.02967
 100        4S         -0.00613  -0.00788  -0.00312  -0.00923  -0.02076
 101        4PX         0.00722   0.01280   0.00063   0.01175   0.02701
 102        4PY        -0.00327  -0.00043   0.00151  -0.00233  -0.00407
 103        4PZ        -0.01034  -0.01677  -0.00036  -0.01280  -0.04035
 104        5D 0       -0.00022  -0.00036   0.00030  -0.00045  -0.00057
 105        5D+1       -0.00060  -0.00054   0.00032  -0.00097  -0.00102
 106        5D-1        0.00027   0.00023  -0.00016   0.00051   0.00024
 107        5D+2       -0.00088  -0.00078   0.00047  -0.00132  -0.00152
 108        5D-2        0.00024  -0.00008   0.00011   0.00014  -0.00008
 109 7   H  1S          0.00251   0.00173  -0.00086   0.00301   0.00435
 110        2S          0.00388   0.00350  -0.00155   0.00600   0.00693
 111        3S          0.00200   0.00254   0.00133   0.00450   0.00401
 112 8   H  1S         -0.00144  -0.00139   0.00094  -0.00187  -0.00360
 113        2S         -0.00232  -0.00282   0.00175  -0.00436  -0.00559
 114        3S          0.00022  -0.00034   0.00211  -0.00108   0.00359
 115 9   C  1S         -0.01144   0.02493  -0.00859  -0.00575  -0.00647
 116        2S         -0.01787   0.03793  -0.01298  -0.00855  -0.00705
 117        2PX         0.06086  -0.08123   0.02878   0.01894   0.04492
 118        2PY        -0.02180   0.02987  -0.00796  -0.00686  -0.01589
 119        2PZ        -0.01434   0.02031  -0.00715  -0.00191  -0.00803
 120        3S          0.04724  -0.09922   0.03280   0.02106   0.00840
 121        3PX         0.09441  -0.11821   0.04296   0.02806   0.06991
 122        3PY        -0.03371   0.04482  -0.00853  -0.00991  -0.02401
 123        3PZ        -0.02241   0.03036  -0.01066   0.00018  -0.01209
 124        4S         -0.01963  -0.06715   0.02886   0.01501  -0.02512
 125        4PX         0.03299  -0.09256   0.02802   0.01752   0.02258
 126        4PY        -0.00960   0.02873  -0.02641  -0.00093  -0.00180
 127        4PZ        -0.00717   0.01738  -0.00443  -0.01875  -0.00698
 128        5D 0       -0.00542   0.00279   0.00055  -0.00321  -0.00477
 129        5D+1       -0.00474   0.00333  -0.00148   0.00751  -0.00198
 130        5D-1        0.00186  -0.00196  -0.00172  -0.00074   0.00054
 131        5D+2        0.00856  -0.00213   0.00746   0.00314   0.00849
 132        5D-2       -0.00672   0.00552   0.00468  -0.00163  -0.00465
 133 10  H  1S         -0.01284   0.00721  -0.00956  -0.00286  -0.01576
 134        2S         -0.01790   0.01521  -0.01996  -0.00675  -0.02217
 135        3S         -0.01330   0.01004  -0.02450  -0.01070  -0.02225
 136 11  H  1S         -0.01250   0.00966  -0.00020   0.00377  -0.01276
 137        2S         -0.01777   0.02226  -0.00183   0.00764  -0.01406
 138        3S         -0.01047   0.02244   0.00272   0.01457   0.00386
 139 12  H  1S         -0.01259   0.01020   0.00035  -0.00739  -0.01370
 140        2S         -0.01764   0.02095  -0.00106  -0.01599  -0.01946
 141        3S         -0.00839   0.02092   0.00370  -0.01592  -0.00298
 142 13  C  1S         -0.01275  -0.00945  -0.01288   0.02243  -0.00678
 143        2S         -0.01977  -0.01445  -0.01964   0.03384  -0.00995
 144        2PX        -0.02267  -0.00804  -0.01561   0.02776  -0.01387
 145        2PY        -0.03067  -0.01447  -0.01815   0.03907  -0.01466
 146        2PZ         0.05715   0.02803   0.03836  -0.06325   0.04780
 147        3S          0.05183   0.03823   0.05159  -0.08750   0.02627
 148        3PX        -0.03526  -0.00886  -0.02334   0.04136  -0.02102
 149        3PY        -0.04763  -0.02153  -0.02378   0.05812  -0.02260
 150        3PZ         0.08803   0.04176   0.05685  -0.09063   0.07391
 151        4S         -0.01092   0.02443   0.03340  -0.05196  -0.01580
 152        4PX        -0.01473  -0.03061  -0.01428   0.01983  -0.02582
 153        4PY        -0.01359  -0.00681  -0.03379   0.03978   0.01177
 154        4PZ         0.03054   0.01935   0.03306  -0.08076   0.00367
 155        5D 0        0.00617   0.00489   0.00625   0.00053   0.00506
 156        5D+1       -0.00678   0.00472  -0.00355   0.00392  -0.00545
 157        5D-1       -0.00921  -0.00377   0.00097   0.00497  -0.00795
 158        5D+2       -0.00137  -0.00374   0.00452   0.00163  -0.00222
 159        5D-2        0.00373  -0.00116  -0.00083  -0.00349   0.00172
 160 14  H  1S         -0.01377   0.00100  -0.00221   0.00950  -0.01769
 161        2S         -0.02223  -0.00069  -0.00576   0.01835  -0.03225
 162        3S         -0.01349   0.00523  -0.00290   0.02077  -0.01364
 163 15  H  1S         -0.01160  -0.00194  -0.00954   0.00652  -0.00673
 164        2S         -0.01696  -0.00535  -0.02037   0.01310  -0.00909
 165        3S         -0.01582  -0.01174  -0.02633  -0.00025  -0.03455
 166 16  H  1S         -0.01263  -0.00858  -0.00151   0.00796  -0.01464
 167        2S         -0.01693  -0.01543  -0.00394   0.01831  -0.01280
 168        3S         -0.01168  -0.02237   0.00087   0.01489  -0.01249
 169 17  C  1S         -0.01241   0.00063   0.02721   0.00394  -0.00392
 170        2S         -0.01931   0.00101   0.04126   0.00583  -0.00475
 171        2PX         0.00185   0.00238  -0.00231  -0.00043  -0.00540
 172        2PY         0.06660  -0.00253  -0.09490  -0.01400   0.04744
 173        2PZ         0.01159   0.00018  -0.01471   0.00147   0.00820
 174        3S          0.05076  -0.00333  -0.10680  -0.01460   0.00922
 175        3PX         0.00256   0.00637  -0.00353  -0.00089  -0.00856
 176        3PY         0.10243  -0.00478  -0.13852  -0.02204   0.07116
 177        3PZ         0.01728  -0.00017  -0.02181   0.00476   0.01257
 178        4S         -0.02250  -0.01055  -0.08192  -0.02426  -0.07363
 179        4PX         0.00225  -0.01730  -0.00327   0.00101  -0.01236
 180        4PY         0.03460  -0.00567  -0.10954  -0.01911   0.00902
 181        4PZ         0.00867   0.00315  -0.01649  -0.01801  -0.00290
 182        5D 0       -0.00640   0.00117   0.00292   0.00187  -0.00413
 183        5D+1       -0.00014   0.00200  -0.00072   0.00142   0.00108
 184        5D-1        0.00286  -0.00053  -0.00358   0.00761   0.00397
 185        5D+2       -0.01129  -0.00026   0.00597   0.00250  -0.00907
 186        5D-2        0.00040   0.00876  -0.00044  -0.00039   0.00267
 187 18  H  1S         -0.01221  -0.00612   0.00996   0.00245  -0.02131
 188        2S         -0.01739  -0.01265   0.02224   0.00486  -0.02570
 189        3S         -0.01045  -0.01558   0.01827   0.00459  -0.01205
 190 19  H  1S         -0.01174   0.00348   0.01191  -0.00347  -0.01286
 191        2S         -0.01672   0.00560   0.02569  -0.00721  -0.01420
 192        3S         -0.00816   0.00721   0.02127  -0.01258  -0.00382
 193 20  H  1S         -0.01363   0.00365   0.00768   0.00528  -0.00917
 194        2S         -0.01893   0.00863   0.01808   0.01253  -0.00689
 195        3S         -0.01185   0.01233   0.01402   0.01594   0.00147
                          11        12        13        14        15
  11        4PX         0.14430
  12        4PY        -0.00148   0.10750
  13        4PZ         0.01089  -0.02858   0.13117
  14        5D 0        0.00418   0.00351  -0.00010   0.00163
  15        5D+1        0.00410  -0.00269   0.00556   0.00036   0.00220
  16        5D-1       -0.00164  -0.00203   0.00521  -0.00017   0.00048
  17        5D+2       -0.00281   0.00596   0.00305   0.00037  -0.00001
  18        5D-2        0.00555   0.00039  -0.00164   0.00040   0.00023
  19 2   C  1S         -0.00960  -0.01010  -0.00309  -0.00204  -0.00424
  20        2S         -0.01623  -0.01447  -0.00647  -0.00296  -0.00612
  21        2PX        -0.01661  -0.00255  -0.03825  -0.00515  -0.00373
  22        2PY         0.00014   0.01276  -0.01916  -0.00244  -0.00337
  23        2PZ        -0.03215   0.00137  -0.04332  -0.00106  -0.00672
  24        3S          0.05143   0.03819   0.02254   0.00755   0.01565
  25        3PX        -0.02286  -0.00419  -0.05857  -0.00742  -0.00504
  26        3PY         0.00191   0.01925  -0.02356  -0.00323  -0.00479
  27        3PZ        -0.05313   0.00286  -0.06678  -0.00150  -0.00983
  28        4S          0.01579   0.01892   0.01222   0.00716   0.01462
  29        4PX        -0.01320  -0.00963   0.00184  -0.00478  -0.00450
  30        4PY         0.01337  -0.01380   0.01678   0.00019  -0.00222
  31        4PZ         0.01088   0.00875  -0.02114  -0.00172  -0.00779
  32        5D 0        0.00575   0.00210  -0.00192   0.00072  -0.00015
  33        5D+1        0.01061   0.00219   0.00810   0.00006   0.00012
  34        5D-1        0.01799  -0.00573   0.01184  -0.00023  -0.00006
  35        5D+2        0.00148  -0.00068   0.01286  -0.00031  -0.00018
  36        5D-2       -0.00026  -0.00620   0.00443  -0.00062   0.00031
  37 3   O  1S          0.00224   0.00335  -0.00002   0.00033   0.00001
  38        2S          0.00471   0.00713  -0.00182   0.00051   0.00016
  39        2PX         0.00224  -0.02323   0.05353  -0.00098   0.00020
  40        2PY        -0.01042  -0.00577   0.00302   0.00442   0.00089
  41        2PZ         0.08211  -0.00181   0.04176   0.00117  -0.00280
  42        3S         -0.01771  -0.02786   0.01246  -0.00142  -0.00102
  43        3PX         0.00270  -0.03341   0.07486  -0.00164   0.00028
  44        3PY        -0.01406  -0.00833   0.00404   0.00616   0.00136
  45        3PZ         0.11636  -0.00226   0.05800   0.00167  -0.00416
  46        4S         -0.02833  -0.03002   0.01287  -0.00019  -0.00135
  47        4PX         0.01047  -0.02855   0.07885  -0.00094   0.00108
  48        4PY        -0.01347  -0.00281  -0.00611   0.00535   0.00135
  49        4PZ         0.12554  -0.00098   0.06868   0.00206  -0.00226
  50        5D 0       -0.00019  -0.00108   0.00176   0.00013   0.00006
  51        5D+1       -0.00132   0.00040  -0.00023  -0.00002   0.00026
  52        5D-1       -0.00227  -0.00007  -0.00008  -0.00005   0.00042
  53        5D+2        0.00020   0.00043   0.00043   0.00043   0.00011
  54        5D-2        0.00062   0.00246  -0.00344  -0.00006  -0.00005
  55 4   C  1S          0.01062   0.00336   0.00903  -0.00101   0.00002
  56        2S          0.01764   0.00562   0.01285  -0.00148   0.00022
  57        2PX         0.01305   0.01720  -0.00855  -0.00133  -0.00008
  58        2PY        -0.01314  -0.00004  -0.01118   0.00115  -0.00079
  59        2PZ         0.02147  -0.01672   0.03242  -0.00147  -0.00099
  60        3S         -0.05552  -0.01530  -0.03577   0.00365  -0.00135
  61        3PX         0.01684   0.02551  -0.01618  -0.00191  -0.00015
  62        3PY        -0.02015   0.00033  -0.01675   0.00131  -0.00126
  63        3PZ         0.02953  -0.02351   0.04488  -0.00203  -0.00145
  64        4S         -0.04762  -0.04055  -0.01022   0.00383  -0.00155
  65        4PX         0.02688   0.02425  -0.00695  -0.00030   0.00142
  66        4PY        -0.01598  -0.00320  -0.00695   0.00038  -0.00119
  67        4PZ         0.02747  -0.02421   0.04612  -0.00098  -0.00006
[...]
 195        3S          0.00105   0.00011   0.00205   0.00282   0.00564
                         176       177       178       179       180
 176        3PY         0.18050
 177        3PZ         0.00000   0.19806
 178        4S          0.00000   0.00000   0.31422
 179        4PX         0.00000   0.00000   0.00000   0.12282
 180        4PY         0.08186   0.00000   0.00000   0.00000   0.09682
 181        4PZ         0.00000   0.10004   0.00000   0.00000   0.00000
 182        5D 0        0.00000   0.00000   0.00000   0.00000   0.00000
 183        5D+1        0.00000   0.00000   0.00000   0.00000   0.00000
 184        5D-1        0.00000   0.00000   0.00000   0.00000   0.00000
 185        5D+2        0.00000   0.00000   0.00000   0.00000   0.00000
 186        5D-2        0.00000   0.00000   0.00000   0.00000   0.00000
 187 18  H  1S          0.00569   0.00129   0.01899   0.02886   0.00314
 188        2S          0.00861   0.00205   0.03204   0.05670   0.00687
 189        3S          0.00189   0.00055   0.00426   0.02603   0.00259
 190 19  H  1S          0.01048   0.02755   0.01799   0.00488   0.00654
 191        2S          0.01591   0.04112   0.02886   0.01004   0.01390
 192        3S          0.00363   0.01121   0.00039   0.00421   0.00556
 193 20  H  1S          0.00192   0.02825   0.01675   0.01111   0.00104
 194        2S          0.00289   0.04214   0.02531   0.02172   0.00239
 195        3S          0.00059   0.01101  -0.00004   0.00959   0.00099
                         181       182       183       184       185
 181        4PZ         0.12319
 182        5D 0        0.00000   0.00121
 183        5D+1        0.00000   0.00000   0.00166
 184        5D-1        0.00000   0.00000   0.00000   0.00146
 185        5D+2        0.00000   0.00000   0.00000   0.00000   0.00143
 186        5D-2        0.00000   0.00000   0.00000   0.00000   0.00000
 187 18  H  1S          0.00079   0.00097   0.00038   0.00006   0.00209
 188        2S          0.00181   0.00078   0.00029   0.00005   0.00153
 189        3S          0.00083   0.00009   0.00003   0.00001   0.00014
 190 19  H  1S          0.02139   0.00096   0.00135   0.00244   0.00001
 191        2S          0.04185   0.00071   0.00105   0.00190   0.00002
 192        3S          0.01898   0.00006   0.00011   0.00020   0.00001
 193 20  H  1S          0.02149   0.00111   0.00311   0.00046   0.00039
 194        2S          0.04265   0.00082   0.00240   0.00039   0.00026
 195        3S          0.01875   0.00008   0.00025   0.00005   0.00002
                         186       187       188       189       190
 186        5D-2        0.00138
 187 18  H  1S          0.00186   0.08394
 188        2S          0.00147   0.06524   0.10449
 189        3S          0.00017   0.01742   0.04349   0.03297
 190 19  H  1S          0.00059  -0.00001  -0.00059  -0.00208   0.08385
 191        2S          0.00047  -0.00060  -0.00371  -0.00641   0.06563
 192        3S          0.00005  -0.00197  -0.00611  -0.00645   0.01717
 193 20  H  1S          0.00026  -0.00001  -0.00053  -0.00190  -0.00001
 194        2S          0.00021  -0.00055  -0.00329  -0.00567  -0.00055
 195        3S          0.00003  -0.00182  -0.00553  -0.00621  -0.00182
                         191       192       193       194       195
 191        2S          0.10591
 192        3S          0.04359   0.03294
 193 20  H  1S         -0.00053  -0.00201   0.08384
 194        2S         -0.00327  -0.00588   0.06519   0.10463
 195        3S         -0.00554  -0.00642   0.01715   0.04313   0.03165
     Gross orbital populations:
                           1
   1 1   C  1S          1.10326
   2        2S          0.88585
   3        2PX         0.21037
   4        2PY         0.21387
   5        2PZ         0.20821
   6        3S          0.75082
   7        3PX         0.50317
   8        3PY         0.50942
   9        3PZ         0.49703
  10        4S          0.47571
  11        4PX         0.23614
  12        4PY         0.24106
  13        4PZ         0.23837
  14        5D 0        0.01507
  15        5D+1        0.01978
  16        5D-1        0.01471
  17        5D+2        0.01825
  18        5D-2        0.01328
  19 2   C  1S          1.10361
  20        2S          0.88544
  21        2PX         0.18548
  22        2PY         0.22447
  23        2PZ         0.20591
  24        3S          0.80486
  25        3PX         0.42041
  26        3PY         0.47223
  27        3PZ         0.49367
  28        4S          0.29961
  29        4PX         0.18760
  30        4PY         0.10301
  31        4PZ         0.15267
  32        5D 0        0.01806
  33        5D+1        0.02390
  34        5D-1        0.04696
  35        5D+2        0.03380
  36        5D-2        0.02251
  37 3   O  1S          1.08392
  38        2S          0.90912
  39        2PX         0.29851
  40        2PY         0.30548
  41        2PZ         0.37022
  42        3S          1.01506
  43        3PX         0.61636
  44        3PY         0.62654
  45        3PZ         0.73969
  46        4S          0.83067
  47        4PX         0.49801
  48        4PY         0.44626
  49        4PZ         0.60878
  50        5D 0        0.00208
  51        5D+1        0.00099
  52        5D-1        0.00271
  53        5D+2        0.00473
  54        5D-2        0.00566
  55 4   C  1S          1.10357
  56        2S          0.88497
  57        2PX         0.21607
  58        2PY         0.19477
  59        2PZ         0.21776
  60        3S          0.80686
  61        3PX         0.46640
  62        3PY         0.41490
  63        3PZ         0.48478
  64        4S          0.49242
  65        4PX         0.27582
  66        4PY         0.11121
  67        4PZ         0.23893
  68        5D 0        0.01162
  69        5D+1        0.01181
  70        5D-1        0.01495
  71        5D+2        0.02147
  72        5D-2        0.01294
  73 5   N  1S          1.09456
  74        2S          0.89614
  75        2PX         0.26831
  76        2PY         0.28471
  77        2PZ         0.25763
  78        3S          0.88444
  79        3PX         0.57982
  80        3PY         0.60017
  81        3PZ         0.57060
  82        4S          0.61867
  83        4PX         0.32358
  84        4PY         0.26674
  85        4PZ         0.41803
  86        5D 0        0.00574
  87        5D+1        0.00582
  88        5D-1        0.01125
  89        5D+2        0.01217
  90        5D-2        0.00806
  91 6   C  1S          1.10313
  92        2S          0.88612
  93        2PX         0.21703
  94        2PY         0.22209
  95        2PZ         0.21091
  96        3S          0.77607
  97        3PX         0.51665
  98        3PY         0.53279
  99        3PZ         0.49546
 100        4S          0.48546
 101        4PX         0.27928
 102        4PY         0.21879
 103        4PZ         0.37641
 104        5D 0        0.00641
 105        5D+1        0.01087
 106        5D-1        0.01168
 107        5D+2        0.02174
 108        5D-2        0.01488
 109 7   H  1S          0.27351
 110        2S          0.38669
 111        3S          0.07327
 112 8   H  1S          0.27344
 113        2S          0.38640
 114        3S          0.07290
 115 9   C  1S          1.10311
 116        2S          0.88639
 117        2PX         0.20523
 118        2PY         0.21960
 119        2PZ         0.22082
 120        3S          0.76518
 121        3PX         0.50574
 122        3PY         0.54439
 123        3PZ         0.54788
 124        4S          0.59161
 125        4PX         0.25316
 126        4PY         0.35111
 127        4PZ         0.36670
 128        5D 0        0.00900
 129        5D+1        0.01579
 130        5D-1        0.00658
 131        5D+2        0.01552
 132        5D-2        0.00605
 133 10  H  1S          0.28118
 134        2S          0.38438
 135        3S          0.11037
 136 11  H  1S          0.28039
 137        2S          0.38422
 138        3S          0.10692
 139 12  H  1S          0.28118
 140        2S          0.38407
 141        3S          0.10945
 142 13  C  1S          1.10309
 143        2S          0.88639
 144        2PX         0.21882
 145        2PY         0.21949
 146        2PZ         0.20977
 147        3S          0.76482
 148        3PX         0.54275
 149        3PY         0.54248
 150        3PZ         0.51567
 151        4S          0.58312
 152        4PX         0.35306
 153        4PY         0.34117
 154        4PZ         0.28585
 155        5D 0        0.01160
 156        5D+1        0.01400
 157        5D-1        0.00623
 158        5D+2        0.01640
 159        5D-2        0.00462
 160 14  H  1S          0.28108
 161        2S          0.38593
 162        3S          0.10990
 163 15  H  1S          0.28176
 164        2S          0.38221
 165        3S          0.11795
 166 16  H  1S          0.28135
 167        2S          0.38707
 168        3S          0.11296
 169 17  C  1S          1.10309
 170        2S          0.88639
 171        2PX         0.22025
 172        2PY         0.20756
 173        2PZ         0.22003
 174        3S          0.76243
 175        3PX         0.54699
 176        3PY         0.50956
 177        3PZ         0.54510
 178        4S          0.60148
 179        4PX         0.37652
 180        4PY         0.24052
 181        4PZ         0.37556
 182        5D 0        0.00869
 183        5D+1        0.01128
 184        5D-1        0.01115
 185        5D+2        0.01107
 186        5D-2        0.01062
 187 18  H  1S          0.28114
 188        2S          0.38289
 189        3S          0.10517
 190 19  H  1S          0.28102
 191        2S          0.38521
 192        3S          0.10717
 193 20  H  1S          0.28068
 194        2S          0.38324
 195        3S          0.10665
          Condensed to atoms (all electrons):
               1          2          3          4          5          6
     1  C    5.440230   0.267049  -0.102269  -0.111263  -0.004439   0.000473
     2  C    0.267049   4.680636   0.624654   0.379282  -0.034093  -0.001575
     3  O   -0.102269   0.624654   7.876178  -0.063573  -0.003574   0.000500
     4  C   -0.111263   0.379282  -0.063573   5.318228   0.565768  -0.116393
     5  N   -0.004439  -0.034093  -0.003574   0.565768   6.113426   0.525501
     6  C    0.000473  -0.001575   0.000500  -0.116393   0.525501   5.224019
     7  H    0.000116  -0.000282  -0.000016   0.000601  -0.029110   0.375522
     8  H    0.000006  -0.000086   0.000127   0.000221  -0.028290   0.376419
     9  C    0.337112  -0.075690  -0.000446  -0.009194   0.000568  -0.000011
    10  H   -0.036975  -0.003602   0.004357  -0.000034   0.000013  -0.000002
    11  H   -0.033176   0.007264  -0.000364  -0.000355  -0.000022   0.000001
    12  H   -0.029188  -0.009024  -0.000387   0.009157  -0.000197   0.000007
    13  C    0.330821  -0.077686   0.008168   0.007286  -0.000147   0.000029
    14  H   -0.036971   0.009119   0.000210  -0.000116  -0.000008   0.000002
    15  H   -0.034945  -0.009293   0.014676   0.001058   0.000002  -0.000005
    16  H   -0.034559  -0.005260   0.001954   0.000059  -0.000011  -0.000000
    17  C    0.293922  -0.059233   0.004480  -0.003507   0.000002   0.000130
    18  H   -0.038856  -0.004123   0.000274  -0.003472   0.001601   0.000891
    19  H   -0.028078  -0.009849   0.000074   0.007408  -0.000731   0.000285
    20  H   -0.024661   0.005980  -0.000217   0.000077   0.000175  -0.000036
               7          8          9         10         11         12
     1  C    0.000116   0.000006   0.337112  -0.036975  -0.033176  -0.029188
     2  C   -0.000282  -0.000086  -0.075690  -0.003602   0.007264  -0.009024
     3  O   -0.000016   0.000127  -0.000446   0.004357  -0.000364  -0.000387
     4  C    0.000601   0.000221  -0.009194  -0.000034  -0.000355   0.009157
     5  N   -0.029110  -0.028290   0.000568   0.000013  -0.000022  -0.000197
     6  C    0.375522   0.376419  -0.000011  -0.000002   0.000001   0.000007
     7  H    0.414649  -0.028195   0.000000  -0.000000   0.000001   0.000002
     8  H   -0.028195   0.412490   0.000001  -0.000000   0.000000   0.000001
     9  C    0.000000   0.000001   5.404354   0.381289   0.383261   0.377685
    10  H   -0.000000  -0.000000   0.381289   0.479431  -0.027614  -0.027438
    11  H    0.000001   0.000000   0.383261  -0.027614   0.475468  -0.024332
    12  H    0.000002   0.000001   0.377685  -0.027438  -0.024332   0.473548
    13  C   -0.000002  -0.000000  -0.087141  -0.006402  -0.005987   0.008543
    14  H    0.000001  -0.000000  -0.006945  -0.000541   0.003152   0.000110
    15  H   -0.000000  -0.000001  -0.006226   0.004620  -0.000995  -0.000153
    16  H   -0.000000  -0.000000   0.008555  -0.000153  -0.000055  -0.000401
    17  C    0.000211  -0.000007  -0.088546   0.009674  -0.008528  -0.006524
    18  H   -0.000007   0.000028   0.008014  -0.000393   0.000051  -0.000062
    19  H   -0.000004   0.000024  -0.006370  -0.000124  -0.000175   0.003502
    20  H   -0.000018   0.000001  -0.006416  -0.000172   0.003931  -0.000153
              13         14         15         16         17         18
     1  C    0.330821  -0.036971  -0.034945  -0.034559   0.293922  -0.038856
     2  C   -0.077686   0.009119  -0.009293  -0.005260  -0.059233  -0.004123
     3  O    0.008168   0.000210   0.014676   0.001954   0.004480   0.000274
     4  C    0.007286  -0.000116   0.001058   0.000059  -0.003507  -0.003472
     5  N   -0.000147  -0.000008   0.000002  -0.000011   0.000002   0.001601
     6  C    0.000029   0.000002  -0.000005  -0.000000   0.000130   0.000891
     7  H   -0.000002   0.000001  -0.000000  -0.000000   0.000211  -0.000007
     8  H   -0.000000  -0.000000  -0.000001  -0.000000  -0.000007   0.000028
     9  C   -0.087141  -0.006945  -0.006226   0.008555  -0.088546   0.008014
    10  H   -0.006402  -0.000541   0.004620  -0.000153   0.009674  -0.000393
    11  H   -0.005987   0.003152  -0.000995  -0.000055  -0.008528   0.000051
    12  H    0.008543   0.000110  -0.000153  -0.000401  -0.006524  -0.000062
    13  C    5.381934   0.388908   0.379079   0.384775  -0.089406  -0.004573
    14  H    0.388908   0.479778  -0.027610  -0.027281  -0.007534  -0.000155
    15  H    0.379079  -0.027610   0.480025  -0.027275   0.009651  -0.000132
    16  H    0.384775  -0.027281  -0.027275   0.484027  -0.005879   0.003168
    17  C   -0.089406  -0.007534   0.009651  -0.005879   5.457337   0.386693
    18  H   -0.004573  -0.000155  -0.000132   0.003168   0.386693   0.473682
    19  H    0.008312  -0.000064  -0.000423  -0.000064   0.378139  -0.027922
    20  H   -0.007176   0.002852  -0.000146  -0.000219   0.377224  -0.025505
              19         20
     1  C   -0.028078  -0.024661
     2  C   -0.009849   0.005980
     3  O    0.000074  -0.000217
     4  C    0.007408   0.000077
     5  N   -0.000731   0.000175
     6  C    0.000285  -0.000036
     7  H   -0.000004  -0.000018
     8  H    0.000024   0.000001
     9  C   -0.006370  -0.006416
    10  H   -0.000124  -0.000172
    11  H   -0.000175   0.003931
    12  H    0.003502  -0.000153
    13  C    0.008312  -0.007176
    14  H   -0.000064   0.002852
    15  H   -0.000423  -0.000146
    16  H   -0.000064  -0.000219
    17  C    0.378139   0.377224
    18  H   -0.027922  -0.025505
    19  H    0.475487  -0.026021
    20  H   -0.026021   0.471067
 Mulliken charges:
               1
     1  C   -0.154349
     2  C    0.315811
     3  O   -0.364805
     4  C    0.018760
     5  N   -0.106434
     6  C   -0.385758
     7  H    0.266531
     8  H    0.267261
     9  C   -0.613853
    10  H    0.224066
    11  H    0.228473
    12  H    0.225304
    13  C   -0.619335
    14  H    0.223094
    15  H    0.218090
    16  H    0.218618
    17  C   -0.648301
    18  H    0.230799
    19  H    0.226594
    20  H    0.229433
 Sum of Mulliken charges =  -0.00000
 Mulliken charges with hydrogens summed into heavy atoms:
               1
     1  C   -0.154349
     2  C    0.315811
     3  O   -0.364805
     4  C    0.018760
     5  N   -0.106434
     6  C    0.148034
     9  C    0.063990
    13  C    0.040468
    17  C    0.038525
 Electronic spatial extent (au):  <R**2>=           1579.0267
 Charge=             -0.0000 electrons
 Dipole moment (field-independent basis, Debye):
    X=             -0.2051    Y=             -4.3862    Z=             -0.6840  Tot=              4.4439
 Quadrupole moment (field-independent basis, Debye-Ang):
   XX=            -52.3802   YY=            -50.5014   ZZ=            -54.4737
   XY=             -4.9967   XZ=              5.6817   YZ=             -7.1051
 Traceless Quadrupole moment (field-independent basis, Debye-Ang):
   XX=              0.0716   YY=              1.9504   ZZ=             -2.0219
   XY=             -4.9967   XZ=              5.6817   YZ=             -7.1051
 Octapole moment (field-independent basis, Debye-Ang**2):
  XXX=             79.0370  YYY=             65.7194  ZZZ=           -102.3719  XYY=             33.1375
  XXY=             24.5633  XXZ=            -29.7053  XZZ=             42.5863  YZZ=             14.9753
  YYZ=            -17.9299  XYZ=            -14.2671
 Hexadecapole moment (field-independent basis, Debye-Ang**3):
 XXXX=           -572.5913 YYYY=           -591.6975 ZZZZ=           -891.4540 XXXY=             40.7662
 XXXZ=            -99.2871 YYYX=             11.1406 YYYZ=            138.1016 ZZZX=            -57.3844
 ZZZY=            177.6370 XXYY=           -197.9973 XXZZ=           -210.2141 YYZZ=           -221.4586
 XXYZ=             49.4386 YYXZ=            -12.4054 ZZXY=            -23.8891
 N-N= 4.400353734519D+02 E-N=-1.819297085125D+03  KE= 4.018056493157D+02
 Orbital energies and kinetic energies (alpha):
                                 1                 2
  30         O                -0.335329          1.436976
  31         O                -0.332558          1.376641
  32         O                -0.329165          1.426724
  33         O                -0.267595          2.207911
  34         O                -0.217376          1.534479
  35         V                -0.033292          1.874925
  36         V                -0.021249          1.666610
  37         V                 0.005587          1.732122
  38         V                 0.053260          0.734269
  39         V                 0.071990          0.654775
 Total kinetic energy from orbitals= 4.018056493157D+02
 1\1\ WCSS.PL-BEM-JAVIER-LIFEBOOK-E752\SP\RB3LYP\6-311G(d)\C7H11N1O1\JA
 VIER\17-Nov-2019\0\\# 6-311g(d) b3lyp empiricaldispersion=gd3 SCRF=(sm
 d, Solvent=acetonitrile) Int=UltraFine nosymm scf=(maxcycle=1600, xqc)
  Temperature=273.15 Pop=Reg\\tBu-dipolo\\0,1\C,0,-1.088023,-0.218805,-
 0.28892\C,0,-0.177817,0.138892,0.896477\O,0,0.469004,1.171377,0.967076
 \C,0,-0.221483,-0.764239,2.049806\N,0,0.538064,-1.658382,2.36147\C,0,1
 .285693,-2.608158,2.758868\H,0,1.049403,-3.626299,2.469528\H,0,2.14877
 8,-2.382629,3.375512\C,0,-2.506144,0.288129,0.053295\H,0,-2.509888,1.3
 69188,0.217712\H,0,-3.183825,0.066983,-0.776729\H,0,-2.899006,-0.19709
 5,0.950495\C,0,-0.565753,0.49485,-1.542306\H,0,-1.230748,0.293073,-2.3
 86553\H,0,-0.518711,1.574593,-1.391815\H,0,0.436572,0.147029,-1.808268
 \C,0,-1.117703,-1.739711,-0.513057\H,0,-0.114988,-2.135067,-0.699898\H
 ,0,-1.53995,-2.273528,0.342898\H,0,-1.739538,-1.970977,-1.382023\\Vers
 ion=ES64L-G09RevE.01\HF=-403.3884441\RMSD=2.876e-09\Dipole=-0.0806765,
 -1.7256509,-0.2690941\Quadrupole=0.0532107,1.4500481,-1.5032588,-3.714
 9139,4.2241883,-5.2824473\PG=C01 [X(C7H11N1O1)]\\@


 THERE'S NOTHING SO GREAT AS THE GREAT OUTDOORS.

                                       -- ZIGGY
 Job cpu time:       0 days  0 hours  6 minutes 54.1 seconds.
 File lengths (MBytes):  RWF=     57 Int=      0 D2E=      0 Chk=      4 Scr=      1
 Normal termination of Gaussian 09 at Sun Nov 17 22:32:50 2019.
