 Entering Gaussian System, Link 0=/usr/local/g09.e1/g09
 Initial command:
 /usr/local/g09.e1/l1.exe "/scratch/202635.1.32coren2.q/Gau-22246.inp" -scrdir="/scratch/202635.1.32coren2.q"
 Entering Link 1 = /usr/local/g09.e1/l1.exe PID=     22247.
  
 Copyright (c) 1988,1990,1992,1993,1995,1998,2003,2009,2015,
            Gaussian, Inc.  All Rights Reserved.
  
 This is part of the Gaussian(R) 09 program.  It is based on
 the Gaussian(R) 03 system (copyright 2003, Gaussian, Inc.),
 the Gaussian(R) 98 system (copyright 1998, Gaussian, Inc.),
 the Gaussian(R) 94 system (copyright 1995, Gaussian, Inc.),
 the Gaussian 92(TM) system (copyright 1992, Gaussian, Inc.),
 the Gaussian 90(TM) system (copyright 1990, Gaussian, Inc.),
 the Gaussian 88(TM) system (copyright 1988, Gaussian, Inc.),
 the Gaussian 86(TM) system (copyright 1986, Carnegie Mellon
 University), and the Gaussian 82(TM) system (copyright 1983,
 Carnegie Mellon University). Gaussian is a federally registered
 trademark of Gaussian, Inc.
  
 This software contains proprietary and confidential information,
 including trade secrets, belonging to Gaussian, Inc.
  
 This software is provided under written license and may be
 used, copied, transmitted, or stored only in accord with that
 written license.
  
 The following legend is applicable only to US Government
 contracts under FAR:
  
                    RESTRICTED RIGHTS LEGEND
  
 Use, reproduction and disclosure by the US Government is
 subject to restrictions as set forth in subparagraphs (a)
 and (c) of the Commercial Computer Software - Restricted
 Rights clause in FAR 52.227-19.
  
 Gaussian, Inc.
 340 Quinnipiac St., Bldg. 40, Wallingford CT 06492
  
  
 ---------------------------------------------------------------
 Warning -- This program may not be used in any manner that
 competes with the business of Gaussian, Inc. or will provide
 assistance to any competitor of Gaussian, Inc.  The licensee
 of this program is prohibited from giving any competitor of
 Gaussian, Inc. access to this program.  By using this program,
 the user acknowledges that Gaussian, Inc. is engaged in the
 business of creating and licensing software in the field of
 computational chemistry and represents and warrants to the
 licensee that it is not a competitor of Gaussian, Inc. and that
 it will not use this program in any manner prohibited above.
 ---------------------------------------------------------------
  

 Cite this work as:
 Gaussian 09, Revision E.01,
 M. J. Frisch, G. W. Trucks, H. B. Schlegel, G. E. Scuseria, 
 M. A. Robb, J. R. Cheeseman, G. Scalmani, V. Barone, B. Mennucci, 
 G. A. Petersson, H. Nakatsuji, M. Caricato, X. Li, H. P. Hratchian, 
 A. F. Izmaylov, J. Bloino, G. Zheng, J. L. Sonnenberg, M. Hada, 
 M. Ehara, K. Toyota, R. Fukuda, J. Hasegawa, M. Ishida, T. Nakajima, 
 Y. Honda, O. Kitao, H. Nakai, T. Vreven, J. A. Montgomery, Jr., 
 J. E. Peralta, F. Ogliaro, M. Bearpark, J. J. Heyd, E. Brothers, 
 K. N. Kudin, V. N. Staroverov, T. Keith, R. Kobayashi, J. Normand, 
 K. Raghavachari, A. Rendell, J. C. Burant, S. S. Iyengar, J. Tomasi, 
 M. Cossi, N. Rega, J. M. Millam, M. Klene, J. E. Knox, J. B. Cross, 
 V. Bakken, C. Adamo, J. Jaramillo, R. Gomperts, R. E. Stratmann, 
 O. Yazyev, A. J. Austin, R. Cammi, C. Pomelli, J. W. Ochterski, 
 R. L. Martin, K. Morokuma, V. G. Zakrzewski, G. A. Voth, 
 P. Salvador, J. J. Dannenberg, S. Dapprich, A. D. Daniels, 
 O. Farkas, J. B. Foresman, J. V. Ortiz, J. Cioslowski, 
 and D. J. Fox, Gaussian, Inc., Wallingford CT, 2013.
 
 ******************************************
 Gaussian 09:  EM64L-G09RevE.01 30-Nov-2015
                14-Nov-2019 
 ******************************************
 %chk=s-cis_MA.chk
 %nprocshared=4
 Will use up to    4 processors via shared memory.
 %mem=4GB
 ----------------------------------------------------------------------
 # 6-311g(d) b3lyp empiricaldispersion=gd3 SCRF=(smd, Solvent=acetonitr
 ile) Int=UltraFine nosymm scf=(maxcycle=1600, xqc) Temperature=273.15 
 Pop=Reg
 ----------------------------------------------------------------------
 1/38=1,112=273150/1;
 2/12=2,15=1,17=6,18=5,40=1/2;
 3/5=4,6=6,7=1,11=2,16=1,25=1,30=1,70=32201,72=2,74=-5,75=-5,124=31/1,2,3;
 4//1;
 5/5=2,7=1600,8=3,13=1,38=5,53=2/2,8;
 6/28=1/1;
 99/5=1,9=1/99;
 --------
 s-cis_MA
 --------
 Symbolic Z-matrix:
 Charge =  0 Multiplicity = 1
 C                     1.03921   1.57901   1.23951 
 H                     1.98773   1.05302   1.22958 
 H                     0.50794   1.63463   2.18471 
 C                     0.53994   2.13649   0.13797 
 H                     1.05678   2.09106  -0.81469 
 C                    -0.75898   2.85365   0.16301 
 O                    -1.47027   2.99831   1.13445 
 O                    -1.05873   3.33654  -1.05715 
 C                    -2.30415   4.05603  -1.16556 
 H                    -2.30139   4.92752  -0.50887 
 H                    -2.37253   4.36652  -2.20577 
 H                    -3.14386   3.40882  -0.90693 
 
                          Input orientation:                          
 ---------------------------------------------------------------------
 Center     Atomic      Atomic             Coordinates (Angstroms)
 Number     Number       Type             X           Y           Z
 ---------------------------------------------------------------------
      1          6           0        1.039214    1.579005    1.239506
      2          1           0        1.987731    1.053020    1.229579
      3          1           0        0.507944    1.634627    2.184709
      4          6           0        0.539937    2.136492    0.137968
      5          1           0        1.056776    2.091065   -0.814691
      6          6           0       -0.758979    2.853652    0.163011
      7          8           0       -1.470270    2.998313    1.134451
      8          8           0       -1.058729    3.336535   -1.057153
      9          6           0       -2.304146    4.056028   -1.165559
     10          1           0       -2.301388    4.927524   -0.508873
     11          1           0       -2.372528    4.366515   -2.205772
     12          1           0       -3.143857    3.408824   -0.906929
 ---------------------------------------------------------------------
                    Distance matrix (angstroms):
                    1          2          3          4          5
     1  C    0.000000
     2  H    1.084640   0.000000
     3  H    1.085703   1.854807   0.000000
     4  C    1.331711   2.112258   2.107615   0.000000
     5  H    2.117130   2.474521   3.083172   1.084779   0.000000
     6  C    2.452971   3.453152   2.679250   1.483957   2.198728
     7  O    2.884958   3.968751   2.622215   2.403465   3.317863
     8  O    3.572803   4.441228   3.982540   2.328981   2.466849
     9  C    4.806042   5.759770   4.999533   3.670505   3.908962
    10  H    5.042721   6.035772   5.098127   4.035021   4.406392
    11  H    5.592865   6.464731   5.919177   4.352996   4.344296
    12  H    5.045147   6.037191   5.103102   4.034969   4.403443
                    6          7          8          9         10
     6  C    0.000000
     7  O    1.212665   0.000000
     8  O    1.346041   2.255413   0.000000
     9  C    2.366083   2.665362   1.442389   0.000000
    10  H    2.670468   2.667044   2.091903   1.091215   0.000000
    11  H    3.240899   3.720636   2.026389   1.087714   1.788647
    12  H    2.672196   2.671450   2.091782   1.091273   1.781755
                   11         12
    11  H    0.000000
    12  H    1.788607   0.000000
 Symmetry turned off by external request.
 Stoichiometry    C4H6O2
 Framework group  C1[X(C4H6O2)]
 Deg. of freedom    30
 Full point group                 C1      NOp   1
 Rotational constants (GHZ):     10.2919065      2.3098382      1.9092605
 Standard basis: 6-311G(d) (5D, 7F)
   126 basis functions,   222 primitive gaussians,   132 cartesian basis functions
    23 alpha electrons       23 beta electrons
       nuclear repulsion energy       227.1468040179 Hartrees.
 NAtoms=   12 NActive=   12 NUniq=   12 SFac= 1.00D+00 NAtFMM=   60 NAOKFM=F Big=F
 Integral buffers will be    131072 words long.
 Raffenetti 2 integral format.
 Two-electron integral symmetry is turned off.
 Nuclear repulsion after empirical dispersion term =      227.1403502823 Hartrees.
 ------------------------------------------------------------------------------
 Polarizable Continuum Model (PCM)
 =================================
 Model                : PCM (using non-symmetric T matrix).
 Atomic radii         : SMD-Coulomb.
 Polarization charges : Total charges.
 Charge compensation  : None.
 Solution method      : On-the-fly selection.
 Cavity type          : VdW (van der Waals Surface) (Alpha=1.000).
 Cavity algorithm     : GePol (No added spheres)
                        Default sphere list used, NSphG=   12.
                        Lebedev-Laikov grids with approx.  5.0 points / Ang**2.
                        Smoothing algorithm: York/Karplus (Gamma=1.0000).
                        Polarization charges: spherical gaussians, with
                                              point-specific exponents (IZeta= 3).
                        Self-potential: point-specific (ISelfS= 7).
                        Self-field    : sphere-specific E.n sum rule (ISelfD= 2).
 Solvent              : Acetonitrile, Eps=  35.688000 Eps(inf)=   1.806874
 ------------------------------------------------------------------------------
 Spheres list:
 ISph  on   Nord     Re0    Alpha      Xe            Ye            Ze
    1   C      1    1.8500  1.000      1.039214      1.579005      1.239506
    2   H      2    1.2000  1.000      1.987731      1.053020      1.229579
    3   H      3    1.2000  1.000      0.507944      1.634627      2.184709
    4   C      4    1.8500  1.000      0.539937      2.136492      0.137968
    5   H      5    1.2000  1.000      1.056776      2.091065     -0.814691
    6   C      6    1.8500  1.000     -0.758979      2.853652      0.163011
    7   O      7    2.1680  1.000     -1.470270      2.998313      1.134451
    8   O      8    2.1680  1.000     -1.058729      3.336535     -1.057153
    9   C      9    1.8500  1.000     -2.304146      4.056028     -1.165559
   10   H     10    1.2000  1.000     -2.301388      4.927524     -0.508873
   11   H     11    1.2000  1.000     -2.372528      4.366515     -2.205772
   12   H     12    1.2000  1.000     -3.143857      3.408824     -0.906929
 ------------------------------------------------------------------------------
 ------------------------------------------------------------------------------
 Atomic radii for non-electrostatic terms: SMD-CDS.
 ------------------------------------------------------------------------------
 Nuclear repulsion after PCM non-electrostatic terms =      227.1411435080 Hartrees.
 One-electron integrals computed using PRISM.
 NBasis=   126 RedAO= T EigKep=  1.68D-03  NBF=   126
 NBsUse=   126 1.00D-06 EigRej= -1.00D+00 NBFU=   126
 ExpMin= 1.03D-01 ExpMax= 8.59D+03 ExpMxC= 1.30D+03 IAcc=3 IRadAn=         5 AccDes= 0.00D+00
 Harris functional with IExCor=  402 and IRadAn=       5 diagonalized for initial guess.
 HarFok:  IExCor=  402 AccDes= 0.00D+00 IRadAn=         5 IDoV= 1 UseB2=F ITyADJ=14
 ICtDFT=  3500011 ScaDFX=  1.000000  1.000000  1.000000  1.000000
 FoFCou: FMM=F IPFlag=           0 FMFlag=      100000 FMFlg1=           0
         NFxFlg=           0 DoJE=T BraDBF=F KetDBF=T FulRan=T
         wScrn=  0.000000 ICntrl=     500 IOpCl=  0 I1Cent=   200000004 NGrid=           0
         NMat0=    1 NMatS0=      1 NMatT0=    0 NMatD0=    1 NMtDS0=    0 NMtDT0=    0
 Symmetry not used in FoFCou.
 Keep R1 ints in memory in canonical form, NReq=36205846.
 Requested convergence on RMS density matrix=1.00D-08 within 128 cycles.
 Requested convergence on MAX density matrix=1.00D-06.
 Requested convergence on             energy=1.00D-06.
 No special actions if energy rises.
 Inv3:  Mode=1 IEnd=     3024048.
 Iteration    1 A*A^-1 deviation from unit magnitude is 5.33D-15 for    128.
 Iteration    1 A*A^-1 deviation from orthogonality  is 3.90D-15 for    854    412.
 Iteration    1 A^-1*A deviation from unit magnitude is 5.44D-15 for    392.
 Iteration    1 A^-1*A deviation from orthogonality  is 4.80D-13 for    631    609.
 Error on total polarization charges =  0.02364
 SCF Done:  E(RB3LYP) =  -306.560407539     A.U. after   12 cycles
            NFock= 12  Conv=0.72D-08     -V/T= 2.0034
 SMD-CDS (non-electrostatic) energy       (kcal/mol) =       0.50
 (included in total energy above)
 QCSCF skips out because SCF is already converged.

 **********************************************************************

            Population analysis using the SCF density.

 **********************************************************************

 Alpha  occ. eigenvalues --  -19.16242 -19.10284 -10.29798 -10.21246 -10.18369
 Alpha  occ. eigenvalues --  -10.18257  -1.10493  -1.01694  -0.79581  -0.72655
 Alpha  occ. eigenvalues --   -0.62187  -0.54979  -0.51550  -0.48056  -0.47944
 Alpha  occ. eigenvalues --   -0.44643  -0.41520  -0.40093  -0.38150  -0.35641
 Alpha  occ. eigenvalues --   -0.30619  -0.28677  -0.28206
 Alpha virt. eigenvalues --   -0.04905   0.06578   0.07933   0.08020   0.09723
 Alpha virt. eigenvalues --    0.11295   0.12211   0.13077   0.14896   0.24648
 Alpha virt. eigenvalues --    0.26837   0.27595   0.29960   0.31845   0.34101
 Alpha virt. eigenvalues --    0.38028   0.38705   0.39004   0.44992   0.47286
 Alpha virt. eigenvalues --    0.47354   0.51239   0.52401   0.55748   0.57106
 Alpha virt. eigenvalues --    0.57366   0.59731   0.60959   0.63404   0.64745
 Alpha virt. eigenvalues --    0.68803   0.73710   0.77661   0.79562   0.83906
 Alpha virt. eigenvalues --    0.84781   0.87987   0.93342   0.95324   1.03585
 Alpha virt. eigenvalues --    1.09600   1.12074   1.14535   1.26412   1.32053
 Alpha virt. eigenvalues --    1.38683   1.40205   1.42591   1.46279   1.50375
 Alpha virt. eigenvalues --    1.51438   1.56090   1.62473   1.64428   1.67599
 Alpha virt. eigenvalues --    1.72739   1.76658   1.77091   1.85874   1.99821
 Alpha virt. eigenvalues --    1.99947   2.12271   2.24485   2.28801   2.32468
 Alpha virt. eigenvalues --    2.33602   2.34850   2.40745   2.48920   2.63239
 Alpha virt. eigenvalues --    2.70287   2.78231   2.81228   2.86491   2.86593
 Alpha virt. eigenvalues --    2.95591   2.95974   3.02781   3.11728   3.15754
 Alpha virt. eigenvalues --    3.17824   3.22833   3.26815   3.30618   3.35319
 Alpha virt. eigenvalues --    3.48043   3.58480   3.60156   3.85665   3.95372
 Alpha virt. eigenvalues --    4.12793   4.82883   4.90711   5.02374   5.15665
 Alpha virt. eigenvalues --    5.54702   5.73909  23.35845  23.41830  23.78318
 Alpha virt. eigenvalues --   24.19217  49.85293  49.99762
     Molecular Orbital Coefficients:
                          19        20        21        22        23
                           O         O         O         O         O
     Eigenvalues --    -0.38150  -0.35641  -0.30619  -0.28677  -0.28206
   1 1   C  1S         -0.00096   0.00169   0.00001  -0.00007   0.00318
   2        2S         -0.00144   0.00260   0.00001  -0.00011   0.00499
   3        2PX         0.10904   0.03715  -0.00849   0.08163  -0.00423
   4        2PY        -0.03634  -0.01840  -0.01520   0.14631   0.00797
   5        2PZ        -0.09630  -0.00871  -0.00375   0.03732  -0.00887
   6        3S          0.00337  -0.00455  -0.00001   0.00036  -0.01656
   7        3PX         0.16691   0.05380  -0.01087   0.12418  -0.00752
   8        3PY        -0.05617  -0.02701  -0.01946   0.22251   0.01321
   9        3PZ        -0.14525  -0.01118  -0.00474   0.05680  -0.01531
  10        4S          0.01086  -0.02020  -0.00091  -0.00013  -0.00414
  11        4PX         0.11732   0.05711  -0.02004   0.11689  -0.06163
  12        4PY        -0.03578  -0.02794  -0.03674   0.20707   0.05017
  13        4PZ        -0.11690  -0.01465  -0.00880   0.05366  -0.04372
  14        5D 0       -0.02563  -0.01119   0.00054  -0.00576   0.00631
  15        5D+1        0.01805   0.00577   0.00108  -0.00855  -0.00326
  16        5D-1       -0.00257   0.00031   0.00091  -0.01122  -0.00088
  17        5D+2        0.00544   0.00230   0.00215  -0.00958  -0.00076
  18        5D-2       -0.01595  -0.00579   0.00099  -0.00214   0.00198
  19 2   H  1S          0.10735   0.03905  -0.00003   0.00030  -0.01792
  20        2S          0.13688   0.04606  -0.00010   0.00009  -0.00450
  21        3S          0.07127   0.02764  -0.00010   0.00003  -0.00138
  22 3   H  1S         -0.12509  -0.02911   0.00009  -0.00016   0.00793
  23        2S         -0.15630  -0.03507   0.00018  -0.00023   0.01150
  24        3S         -0.06781  -0.01341  -0.00003  -0.00127   0.07303
  25 4   C  1S          0.00742  -0.00667  -0.00002  -0.00019   0.01295
  26        2S          0.01191  -0.01063  -0.00002  -0.00029   0.02016
  27        2PX        -0.05586  -0.05253  -0.00666   0.08191   0.07721
  28        2PY         0.01194   0.02706  -0.01199   0.15000  -0.03453
  29        2PZ         0.07513   0.00902  -0.00315   0.03830  -0.01997
  30        3S         -0.02931   0.03151  -0.00002   0.00079  -0.05729
  31        3PX        -0.08647  -0.08102  -0.01224   0.12494   0.10461
  32        3PY         0.01977   0.04197  -0.02201   0.22824  -0.04322
  33        3PZ         0.11124   0.01316  -0.00577   0.05845  -0.03880
  34        4S         -0.10828   0.09709   0.00135   0.00294  -0.18352
  35        4PX        -0.06051  -0.04563   0.00018   0.12243   0.12228
  36        4PY         0.01602   0.02762  -0.00003   0.22398  -0.04845
  37        4PZ         0.06933  -0.00825   0.00051   0.05802  -0.05738
  38        5D 0       -0.02611  -0.01113  -0.00187   0.00559   0.00202
  39        5D+1        0.01682   0.00959  -0.00225   0.00879  -0.00559
  40        5D-1       -0.00121  -0.00197  -0.00406   0.01110   0.00199
  41        5D+2        0.00486   0.00180  -0.00052   0.01000   0.00222
  42        5D-2       -0.01430  -0.00690   0.00095   0.00241  -0.00078
  43 5   H  1S         -0.09830  -0.03221   0.00009  -0.00074   0.04361
  44        2S         -0.12442  -0.05352   0.00011  -0.00103   0.06381
  45        3S         -0.06165  -0.07411   0.00002  -0.00041   0.02792
  46 6   C  1S         -0.00675  -0.01534   0.00001  -0.00013   0.00708
  47        2S         -0.01056  -0.02526   0.00002  -0.00021   0.01186
  48        2PX         0.08077   0.04845  -0.00794  -0.00727  -0.02742
  49        2PY        -0.04840  -0.00650  -0.01425  -0.01418   0.01530
  50        2PZ         0.01326  -0.07843  -0.00371  -0.00353  -0.00122
  51        3S          0.02835   0.08148  -0.00006   0.00073  -0.04174
  52        3PX         0.11145   0.06933  -0.01120  -0.00736  -0.04559
  53        3PY        -0.06891  -0.00840  -0.02002  -0.01501   0.02497
  54        3PZ         0.02658  -0.11562  -0.00522  -0.00374   0.00064
  55        4S          0.06379   0.06408  -0.00018  -0.00001   0.01069
  56        4PX         0.07509  -0.01963  -0.00955  -0.02045   0.01623
  57        4PY        -0.04863  -0.00207  -0.01671  -0.03635  -0.02420
  58        4PZ         0.02633   0.05114  -0.00426  -0.01048   0.05517
  59        5D 0        0.00684  -0.01914  -0.01803  -0.00443   0.05229
  60        5D+1        0.00777   0.02299  -0.02031   0.00131   0.01878
  61        5D-1       -0.00543  -0.00626  -0.03868  -0.01035  -0.02740
  62        5D+2       -0.00599   0.00049  -0.00164   0.02472  -0.02058
  63        5D-2        0.00567  -0.01073   0.01124   0.01718   0.02142
  64 7   O  1S         -0.00438  -0.00903  -0.00001  -0.00000  -0.00053
  65        2S         -0.00710  -0.01486  -0.00001  -0.00000  -0.00101
  66        2PX         0.02260  -0.07731  -0.07670  -0.05347   0.17942
  67        2PY        -0.03179   0.02440  -0.13792  -0.08871  -0.13984
  68        2PZ         0.07385   0.07316  -0.03550  -0.02598   0.14688
  69        3S          0.02162   0.04850   0.00005  -0.00004   0.00560
  70        3PX         0.03406  -0.10241  -0.10834  -0.07672   0.25577
  71        3PY        -0.04594   0.03189  -0.19482  -0.12737  -0.19930
  72        3PZ         0.10376   0.09874  -0.05016  -0.03724   0.20914
  73        4S          0.02989   0.03546  -0.00005   0.00036  -0.01503
  74        4PX         0.02444  -0.10628  -0.11400  -0.07636   0.25508
  75        4PY        -0.03715   0.03687  -0.20504  -0.12669  -0.20079
  76        4PZ         0.09046   0.08761  -0.05273  -0.03720   0.21647
  77        5D 0       -0.00816  -0.00262   0.00316   0.00251  -0.01031
  78        5D+1        0.00148   0.00650   0.00260   0.00220  -0.00325
  79        5D-1        0.00227  -0.00160   0.00736   0.00523   0.00492
  80        5D+2        0.00144  -0.00280  -0.00396  -0.00200   0.00460
  81        5D-2       -0.00241   0.00177  -0.00461  -0.00270  -0.00527
  82 8   O  1S         -0.00796   0.02811  -0.00000   0.00011  -0.00546
  83        2S         -0.01289   0.04577  -0.00000   0.00018  -0.00866
  84        2PX         0.01066  -0.12984   0.11060  -0.01486  -0.01940
  85        2PY         0.00253   0.03681   0.19923  -0.02680  -0.01949
  86        2PZ        -0.03230   0.13631   0.05176  -0.00899   0.11381
  87        3S          0.03883  -0.13852   0.00001  -0.00053   0.02477
  88        3PX         0.01430  -0.18686   0.15759  -0.02182  -0.03098
  89        3PY         0.00434   0.05440   0.28395  -0.03948  -0.02502
  90        3PZ        -0.04701   0.19069   0.07377  -0.01308   0.15863
  91        4S          0.05915  -0.17809   0.00003  -0.00169   0.08744
  92        4PX         0.01750  -0.17034   0.17197  -0.02061  -0.04239
  93        4PY         0.00045   0.04253   0.30951  -0.03775  -0.02230
  94        4PZ        -0.03877   0.20097   0.08040  -0.01284   0.17236
  95        5D 0       -0.00553   0.00544   0.00368  -0.00097   0.00337
  96        5D+1        0.00053  -0.00208   0.00393  -0.00081  -0.00516
  97        5D-1        0.00210  -0.00308   0.00797  -0.00204   0.00152
  98        5D+2        0.00054   0.00328  -0.00048   0.00049   0.00043
  99        5D-2       -0.00063  -0.00512  -0.00280   0.00089   0.00158
 100 9   C  1S         -0.00161  -0.00558  -0.00000   0.00007  -0.00517
 101        2S         -0.00262  -0.00936  -0.00000   0.00011  -0.00837
 102        2PX        -0.01435   0.08213  -0.03671   0.00913  -0.01123
 103        2PY        -0.01269  -0.01967  -0.06612   0.01581   0.00764
 104        2PZ         0.07984  -0.10055  -0.01715   0.00426  -0.00341
 105        3S          0.00745   0.03325   0.00000  -0.00039   0.02728
 106        3PX        -0.02387   0.13407  -0.05862   0.01366  -0.01924
 107        3PY        -0.01880  -0.03431  -0.10564   0.02354   0.01215
 108        3PZ         0.12384  -0.15558  -0.02741   0.00630  -0.00263
 109        4S          0.01800  -0.00768   0.00017  -0.00028   0.02924
 110        4PX        -0.00806   0.06346  -0.02554   0.01182  -0.04291
 111        4PY        -0.01675  -0.00851  -0.04592   0.01931   0.03734
 112        4PZ         0.08206  -0.10383  -0.01176   0.00618  -0.04854
 113        5D 0       -0.01275   0.01092  -0.00372   0.00026  -0.00084
 114        5D+1       -0.00496   0.01487   0.00149  -0.00108   0.00808
 115        5D-1        0.00962  -0.01756  -0.01088   0.00126  -0.00351
 116        5D+2        0.00032   0.00360   0.02344  -0.00511  -0.00290
 117        5D-2        0.00333  -0.01494   0.01713  -0.00341   0.00063
 118 10  H  1S          0.03553  -0.06662  -0.07351   0.01478   0.00196
 119        2S          0.04082  -0.08233  -0.11722   0.02154   0.00800
 120        3S          0.02591  -0.04841  -0.08828   0.00030  -0.03102
 121 11  H  1S         -0.07000   0.08530  -0.00018  -0.00024   0.01392
 122        2S         -0.09194   0.12773  -0.00027  -0.00001   0.00157
 123        3S         -0.04633   0.04422  -0.00011   0.00025  -0.01242
 124 12  H  1S          0.03522  -0.06604   0.07370  -0.01488   0.00136
 125        2S          0.04047  -0.08160   0.11739  -0.02195   0.00726
 126        3S          0.02571  -0.04814   0.08832   0.00051  -0.03069
                          24        25        26        27        28
                           V         V         V         V         V
     Eigenvalues --    -0.04905   0.06578   0.07933   0.08020   0.09723
   1 1   C  1S         -0.00004  -0.01965   0.03144   0.00287   0.03982
   2        2S         -0.00007  -0.03158   0.05067   0.00462   0.06428
   3        2PX         0.08499   0.02301  -0.06036  -0.05160   0.03480
   4        2PY         0.15266  -0.01750   0.04877  -0.07816   0.00134
   5        2PZ         0.03868   0.01726  -0.01939  -0.02311  -0.08130
   6        3S          0.00019   0.07753  -0.12027  -0.01082  -0.14693
   7        3PX         0.12068   0.03019  -0.07481  -0.06599   0.05188
   8        3PY         0.21679  -0.02090   0.05819  -0.10063  -0.00411
   9        3PZ         0.05493   0.01472  -0.01345  -0.02861  -0.09736
  10        4S          0.00110   0.64963  -1.16452  -0.10686  -1.23682
  11        4PX         0.24880   0.09077  -0.25684  -0.24509   0.20534
  12        4PY         0.44730  -0.08800   0.22415  -0.37825  -0.00313
  13        4PZ         0.11303   0.14082  -0.12511  -0.11501  -0.43585
  14        5D 0        0.00605   0.00609  -0.00966  -0.01223   0.00774
  15        5D+1        0.00960  -0.00082   0.00291  -0.01569  -0.00447
  16        5D-1        0.01180  -0.00219   0.00584  -0.02271   0.00217
  17        5D+2        0.01199  -0.00062   0.00198  -0.01327  -0.00542
  18        5D-2        0.00333   0.00081  -0.00097  -0.00068   0.01084
  19 2   H  1S         -0.00007  -0.01460   0.02710   0.00246   0.00119
  20        2S         -0.00009  -0.02352   0.03621   0.00302  -0.04372
  21        3S         -0.00022  -0.52203   1.18473   0.10843   0.30319
  22 3   H  1S         -0.00002  -0.00145  -0.00008   0.00009   0.04289
  23        2S         -0.00004  -0.00713   0.00731   0.00110   0.05819
  24        3S          0.00029  -0.31345   0.30163   0.03091   1.57557
  25 4   C  1S         -0.00002  -0.01423   0.01671   0.00153  -0.02333
  26        2S         -0.00003  -0.02307   0.02690   0.00246  -0.03823
  27        2PX        -0.05670   0.01328  -0.04344   0.07856   0.05005
  28        2PY        -0.10182   0.00342  -0.01090   0.14710  -0.01618
  29        2PZ        -0.02587  -0.04040   0.06644   0.04370  -0.04655
  30        3S          0.00013   0.06160  -0.07310  -0.00667   0.09003
  31        3PX        -0.08318   0.00258  -0.05855   0.10999   0.07421
  32        3PY        -0.14944   0.01199  -0.01614   0.20523  -0.03038
  33        3PZ        -0.03794  -0.05005   0.09175   0.06095  -0.04385
  34        4S         -0.00033   0.47903  -0.40993  -0.03779   0.74415
  35        4PX        -0.17807   0.09800  -0.29599   0.29483   0.23963
  36        4PY        -0.31946   0.02604  -0.03216   0.57834  -0.04944
  37        4PZ        -0.08196  -0.30771   0.49456   0.19147  -0.33256
  38        5D 0        0.00887   0.00185   0.00520  -0.00711  -0.01187
  39        5D+1        0.01684   0.00639  -0.00560  -0.00506   0.00568
  40        5D-1        0.01575  -0.00545   0.00384  -0.01857  -0.00038
  41        5D+2        0.02943   0.00033  -0.00203   0.01668   0.00440
  42        5D-2        0.01221  -0.00389   0.00218   0.01575  -0.00932
  43 5   H  1S         -0.00013  -0.01355   0.01406   0.00107  -0.03634
  44        2S         -0.00042  -0.02344   0.05905   0.00460  -0.09465
  45        3S         -0.00061  -0.68150   1.00266   0.09077  -1.13171
  46 6   C  1S          0.00001   0.00221   0.00346   0.00029  -0.00642
  47        2S          0.00002   0.00308   0.00508   0.00042  -0.01075
  48        2PX        -0.06594   0.00253   0.00463  -0.10160  -0.00164
  49        2PY        -0.11835  -0.00034   0.01641  -0.18159   0.00401
  50        2PZ        -0.03060  -0.00725   0.01283  -0.04641  -0.01140
  51        3S         -0.00013   0.01619  -0.00433  -0.00024   0.03417
  52        3PX        -0.11288   0.01494   0.02314  -0.16575  -0.01046
  53        3PY        -0.20269  -0.00334   0.01963  -0.29935   0.00793
  54        3PZ        -0.05236  -0.02446   0.01611  -0.07674  -0.00738
  55        4S          0.00063  -0.25208  -0.20988  -0.01987   0.23192
  56        4PX        -0.10602   0.03729  -0.13378  -0.30443  -0.07213
  57        4PY        -0.18961  -0.02982   0.16653  -0.50724   0.03476
  58        4PZ        -0.04912   0.02700  -0.11113  -0.14518   0.02423
  59        5D 0        0.00445   0.00595  -0.00035   0.00441  -0.00271
  60        5D+1       -0.00072  -0.01513   0.01161   0.00803  -0.00981
  61        5D-1        0.01278   0.00417  -0.00825   0.00774   0.00761
  62        5D+2       -0.02478   0.00576  -0.00228   0.00926   0.00056
  63        5D-2       -0.01835  -0.00276  -0.00404   0.00248   0.00439
  64 7   O  1S          0.00001  -0.01438   0.00099   0.00011   0.00732
  65        2S          0.00002  -0.02362   0.00171   0.00019   0.01190
  66        2PX         0.05826   0.00335  -0.03545   0.06404  -0.00861
  67        2PY         0.10479   0.00291   0.00889   0.12115   0.01005
  68        2PZ         0.02717  -0.01621  -0.01494   0.02982  -0.02162
  69        3S         -0.00003   0.07326  -0.00919  -0.00091  -0.03194
  70        3PX         0.07911   0.00310  -0.04801   0.08581  -0.00973
  71        3PY         0.14230   0.00370   0.01329   0.16256   0.01270
  72        3PZ         0.03689  -0.01795  -0.02439   0.03958  -0.02995
  73        4S         -0.00040   0.19917   0.03928   0.00284  -0.16959
  74        4PX         0.11960   0.03137  -0.04833   0.16300  -0.05053
  75        4PY         0.21512   0.00643  -0.00149   0.29956   0.02645
  76        4PZ         0.05583  -0.08680  -0.03135   0.07509   0.00344
  77        5D 0        0.00097   0.00305   0.00161   0.00330   0.00151
  78        5D+1        0.00068  -0.00308  -0.00006   0.00280   0.00303
  79        5D-1        0.00233   0.00038  -0.00180   0.00703  -0.00182
  80        5D+2       -0.00173   0.00039   0.00048  -0.00303  -0.00178
  81        5D-2       -0.00173   0.00057  -0.00027  -0.00406   0.00136
  82 8   O  1S         -0.00006  -0.00418  -0.00088   0.00005  -0.00379
  83        2S         -0.00009  -0.00697  -0.00186   0.00005  -0.00632
  84        2PX         0.04368   0.02442   0.01310   0.03751  -0.00210
  85        2PY         0.07851  -0.01115  -0.01718   0.06377   0.00842
  86        2PZ         0.02033  -0.00808   0.00779   0.01751  -0.02856
  87        3S          0.00029   0.02368   0.01602   0.00073   0.02095
  88        3PX         0.06331   0.03079   0.01796   0.05011   0.00074
  89        3PY         0.11370  -0.01339  -0.02432   0.08505   0.01018
  90        3PZ         0.02946  -0.01267   0.01468   0.02376  -0.04177
  91        4S          0.00055   0.09510  -0.07723  -0.00870   0.05767
  92        4PX         0.07623   0.09731   0.04753   0.09217  -0.03033
  93        4PY         0.13770  -0.05857  -0.04037   0.15362   0.03167
  94        4PZ         0.03549   0.02041  -0.01917   0.03879  -0.05819
  95        5D 0       -0.00176  -0.00185  -0.00067  -0.00502   0.00139
  96        5D+1       -0.00367   0.00334  -0.00153  -0.00757   0.00440
  97        5D-1       -0.00288  -0.00257   0.00214  -0.00939  -0.00266
  98        5D+2       -0.00730   0.00216   0.00210  -0.00819  -0.00180
  99        5D-2       -0.00330  -0.00530  -0.00093  -0.00194   0.00074
 100 9   C  1S          0.00006  -0.04945  -0.02910  -0.00252   0.00195
 101        2S          0.00009  -0.07912  -0.04680  -0.00405   0.00317
 102        2PX        -0.00180  -0.04033  -0.03151   0.01335  -0.00847
 103        2PY        -0.00291   0.02406   0.01360   0.02947   0.01301
 104        2PZ        -0.00082  -0.00662   0.00158   0.00769  -0.03283
 105        3S         -0.00023   0.16978   0.10453   0.00917  -0.00703
 106        3PX        -0.00179  -0.03583  -0.03599   0.02047  -0.01078
 107        3PY        -0.00253   0.02312   0.01363   0.04271   0.01717
 108        3PZ        -0.00073  -0.01264   0.00485   0.01153  -0.04429
 109        4S         -0.00135   1.67817   0.98586   0.08405  -0.02195
 110        4PX         0.02410  -0.24444  -0.17261   0.10054  -0.05903
 111        4PY         0.04412   0.13382   0.06156   0.20948   0.08875
 112        4PZ         0.01097   0.00672   0.03462   0.05690  -0.22090
 113        5D 0       -0.00038   0.00012   0.00355  -0.00185  -0.00202
 114        5D+1        0.00255  -0.00283   0.00269  -0.00035  -0.00511
 115        5D-1       -0.00247   0.00104  -0.00263  -0.00597   0.00330
 116        5D+2        0.01271   0.00151  -0.00130   0.00771   0.00213
 117        5D-2        0.00819  -0.00106  -0.00122   0.00632  -0.00087
 118 10  H  1S         -0.01642  -0.01357  -0.01158  -0.01615   0.00280
 119        2S         -0.05189  -0.05478  -0.02812  -0.07551   0.01041
 120        3S         -0.04546  -0.78311  -0.51573  -0.31566   0.14930
 121 11  H  1S         -0.00003  -0.01480  -0.00045  -0.00001  -0.00980
 122        2S         -0.00011  -0.02432   0.00534   0.00056  -0.01274
 123        3S         -0.00015  -0.78770  -0.38206  -0.03175  -0.40809
 124 12  H  1S          0.01649  -0.01349  -0.01423   0.01393   0.00267
 125        2S          0.05236  -0.05439  -0.04122   0.07024   0.01016
 126        3S          0.04655  -0.78367  -0.56344   0.22325   0.14445
     Density Matrix:
                           1         2         3         4         5
   1 1   C  1S          0.65886
   2        2S          0.56144   0.49188
   3        2PX         0.00102   0.00113   0.08291
   4        2PY        -0.00107  -0.00117  -0.01149   0.06995
   5        2PZ         0.00197   0.00215  -0.00098  -0.00681   0.09080
   6        3S         -0.08602  -0.14970  -0.00162   0.00177  -0.00343
   7        3PX        -0.00428  -0.00520   0.12592  -0.01671  -0.00445
   8        3PY         0.00485   0.00593  -0.01658   0.10504  -0.00764
   9        3PZ        -0.00971  -0.01194  -0.00499  -0.00734   0.13374
  10        4S         -0.07465  -0.11158   0.01288  -0.01527   0.03161
  11        4PX        -0.00135  -0.00220   0.08710   0.00135  -0.00341
  12        4PY         0.00144   0.00249   0.00221   0.08556   0.00461
  13        4PZ        -0.00272  -0.00502  -0.00677   0.00652   0.07732
  14        5D 0        0.00059  -0.00031  -0.01016   0.00265   0.00219
  15        5D+1        0.00374   0.00462   0.00078  -0.00145  -0.01083
  16        5D-1       -0.00147  -0.00088  -0.00074  -0.00536   0.00362
  17        5D+2       -0.00250  -0.00390   0.00138  -0.00537   0.00108
  18        5D-2        0.00236   0.00442  -0.00607   0.00200   0.00143
  19 2   H  1S         -0.02100  -0.03329   0.06565  -0.03639  -0.00069
  20        2S         -0.01947  -0.03055   0.07722  -0.04212  -0.00346
  21        3S         -0.00017  -0.00167   0.03437  -0.01804  -0.00430
  22 3   H  1S         -0.02082  -0.03300  -0.03657   0.00375   0.06542
  23        2S         -0.01910  -0.02975  -0.04303   0.00426   0.07752
  24        3S          0.00050  -0.00055  -0.02051   0.00341   0.03152
  25 4   C  1S          0.00616   0.01028   0.00817  -0.00891   0.01721
  26        2S          0.01033   0.01603   0.01296  -0.01416   0.02742
  27        2PX        -0.00696  -0.01128   0.00924   0.03575  -0.01867
  28        2PY         0.00825   0.01325   0.03556   0.03542   0.03827
  29        2PZ        -0.01722  -0.02749  -0.01790   0.03783  -0.04485
  30        3S         -0.02786  -0.04081  -0.03518   0.03866  -0.07533
  31        3PX        -0.01518  -0.02115   0.01561   0.05261  -0.02366
  32        3PY         0.01680   0.02373   0.05264   0.05654   0.05296
  33        3PZ        -0.03290  -0.04710  -0.02375   0.05301  -0.05744
  34        4S         -0.00778  -0.00911  -0.02069   0.01794  -0.02564
  35        4PX        -0.00011  -0.00176   0.01175   0.04731  -0.00570
  36        4PY         0.00307   0.00559   0.04697   0.05849   0.03672
  37        4PZ        -0.01187  -0.01818  -0.00456   0.03617  -0.03812
  38        5D 0       -0.00438  -0.00524  -0.00636   0.00536   0.00238
  39        5D+1       -0.00468  -0.00588   0.00361   0.00256  -0.00416
  40        5D-1        0.00472   0.00578   0.00304   0.00236   0.00340
  41        5D+2        0.00102   0.00134   0.00333   0.00145   0.00024
  42        5D-2        0.00105   0.00119  -0.00358   0.00168   0.00298
  43 5   H  1S          0.00416   0.00680   0.00117  -0.00362   0.01177
  44        2S          0.00475   0.00803  -0.00144  -0.00420   0.01983
  45        3S          0.00319   0.00461  -0.00576  -0.00072   0.01558
  46 6   C  1S         -0.00133  -0.00194  -0.00322   0.00239  -0.00239
  47        2S         -0.00198  -0.00306  -0.00514   0.00383  -0.00384
  48        2PX         0.00380   0.00584   0.00900  -0.00330   0.00614
  49        2PY        -0.00226  -0.00350  -0.00198   0.00746  -0.00190
  50        2PZ         0.00056   0.00098   0.00096   0.00103  -0.00017
  51        3S          0.00566   0.00934   0.01646  -0.01205   0.01145
  52        3PX         0.00233   0.00501   0.01250  -0.00296   0.00985
  53        3PY        -0.00160  -0.00323  -0.00086   0.01274  -0.00225
  54        3PZ         0.00118   0.00173   0.00160   0.00243  -0.00117
  55        4S          0.00780   0.00986   0.02062  -0.01160   0.00076
  56        4PX         0.00565   0.00741   0.01111  -0.00774   0.00169
  57        4PY        -0.00455  -0.00596  -0.00857   0.00319  -0.00250
  58        4PZ         0.00553   0.00722   0.00465  -0.00418   0.00395
  59        5D 0        0.00098   0.00096   0.00061  -0.00023  -0.00174
  60        5D+1       -0.00177  -0.00260  -0.00172   0.00367  -0.00392
  61        5D-1        0.00076   0.00126   0.00065  -0.00288   0.00248
  62        5D+2       -0.00008   0.00004   0.00341   0.00641   0.00329
  63        5D-2        0.00094   0.00115   0.00405   0.00347   0.00066
  64 7   O  1S         -0.00028  -0.00039  -0.00075   0.00027   0.00055
  65        2S         -0.00043  -0.00062  -0.00122   0.00043   0.00095
  66        2PX         0.00212   0.00326  -0.00040  -0.00986  -0.00342
  67        2PY        -0.00142  -0.00221  -0.01099  -0.01321  -0.00184
  68        2PZ         0.00099   0.00163   0.00085  -0.00434  -0.00491
  69        3S          0.00135   0.00202   0.00392  -0.00124  -0.00360
  70        3PX         0.00250   0.00414  -0.00055  -0.01399  -0.00521
  71        3PY        -0.00198  -0.00317  -0.01579  -0.01875  -0.00268
  72        3PZ         0.00236   0.00350   0.00164  -0.00665  -0.00609
  73        4S         -0.00230  -0.00254   0.00069   0.00059  -0.00365
  74        4PX         0.00139   0.00253  -0.00320  -0.01384  -0.00493
  75        4PY        -0.00118  -0.00206  -0.01566  -0.02101  -0.00298
  76        4PZ         0.00166   0.00261   0.00192  -0.00698  -0.00772
  77        5D 0       -0.00030  -0.00048  -0.00042   0.00061  -0.00016
  78        5D+1        0.00011   0.00006  -0.00012   0.00037   0.00028
  79        5D-1        0.00007   0.00017   0.00067   0.00034   0.00008
  80        5D+2        0.00001   0.00006   0.00014  -0.00009   0.00006
  81        5D-2       -0.00004  -0.00008  -0.00015  -0.00009  -0.00022
  82 8   O  1S          0.00063   0.00109   0.00098  -0.00102   0.00191
  83        2S          0.00107   0.00176   0.00164  -0.00169   0.00314
  84        2PX        -0.00160  -0.00260  -0.00517  -0.00390  -0.00475
  85        2PY         0.00106   0.00174  -0.00434  -0.01190   0.00013
  86        2PZ        -0.00063  -0.00108  -0.00290  -0.00103  -0.00421
  87        3S         -0.00361  -0.00569  -0.00539   0.00551  -0.01015
  88        3PX        -0.00253  -0.00396  -0.00741  -0.00566  -0.00684
  89        3PY         0.00178   0.00276  -0.00620  -0.01722   0.00023
  90        3PZ        -0.00135  -0.00204  -0.00452  -0.00126  -0.00623
  91        4S         -0.00233  -0.00412  -0.00741   0.00741  -0.01341
  92        4PX        -0.00186  -0.00335  -0.00847  -0.00601  -0.00633
  93        4PY         0.00088   0.00170  -0.00679  -0.01803  -0.00101
  94        4PZ         0.00065   0.00073  -0.00310  -0.00300  -0.00395
  95        5D 0       -0.00025  -0.00037  -0.00045   0.00016  -0.00041
  96        5D+1        0.00000   0.00004   0.00030  -0.00027   0.00019
  97        5D-1        0.00006   0.00006  -0.00032  -0.00027  -0.00020
  98        5D+2        0.00012   0.00019   0.00042   0.00033   0.00041
  99        5D-2       -0.00018  -0.00030  -0.00017   0.00075  -0.00047
 100 9   C  1S         -0.00033  -0.00051  -0.00069   0.00055  -0.00070
 101        2S         -0.00052  -0.00082  -0.00111   0.00089  -0.00112
 102        2PX         0.00116   0.00185   0.00261  -0.00069   0.00351
 103        2PY        -0.00075  -0.00120  -0.00005   0.00329  -0.00140
 104        2PZ         0.00040   0.00066   0.00088   0.00009   0.00075
 105        3S          0.00144   0.00241   0.00338  -0.00268   0.00328
 106        3PX         0.00188   0.00295   0.00410  -0.00132   0.00569
 107        3PY        -0.00118  -0.00187  -0.00021   0.00491  -0.00230
 108        3PZ         0.00051   0.00087   0.00113   0.00028   0.00081
 109        4S          0.00334   0.00434   0.00445  -0.00355   0.00453
 110        4PX         0.00177   0.00251   0.00355  -0.00194   0.00527
 111        4PY        -0.00121  -0.00167  -0.00072   0.00357  -0.00291
 112        4PZ         0.00088   0.00108   0.00044  -0.00015   0.00231
 113        5D 0       -0.00019  -0.00029  -0.00030   0.00022  -0.00020
 114        5D+1       -0.00004  -0.00010  -0.00049  -0.00011  -0.00041
 115        5D-1        0.00007   0.00013   0.00039  -0.00001   0.00024
 116        5D+2        0.00010   0.00015  -0.00072  -0.00167  -0.00015
 117        5D-2       -0.00012  -0.00017  -0.00058  -0.00088  -0.00046
 118 10  H  1S         -0.00001  -0.00002   0.00159   0.00268   0.00036
 119        2S         -0.00031  -0.00031   0.00306   0.00516   0.00043
 120        3S         -0.00032  -0.00049   0.00036   0.00099   0.00000
 121 11  H  1S         -0.00040  -0.00066  -0.00065   0.00056  -0.00076
 122        2S         -0.00079  -0.00125  -0.00149   0.00105  -0.00081
 123        3S         -0.00062  -0.00107  -0.00213   0.00137  -0.00067
 124 12  H  1S         -0.00001  -0.00002  -0.00138  -0.00266  -0.00098
 125        2S         -0.00030  -0.00030  -0.00261  -0.00504  -0.00214
 126        3S         -0.00032  -0.00048  -0.00064  -0.00081  -0.00044
                           6         7         8         9        10
   6        3S          0.44519
   7        3PX         0.00936   0.19175
   8        3PY        -0.01068  -0.02455   0.15830
   9        3PZ         0.02152  -0.01114  -0.00815   0.19910
  10        4S          0.28202   0.02599  -0.03062   0.06320   0.21493
  11        4PX         0.00658   0.13243   0.00250  -0.00767   0.01023
  12        4PY        -0.00755   0.00360   0.12915   0.00889  -0.01219
  13        4PZ         0.01544  -0.01195   0.01133   0.11527   0.02536
  14        5D 0        0.00449  -0.01529   0.00385   0.00371   0.00135
  15        5D+1       -0.00857   0.00117  -0.00216  -0.01659  -0.00949
  16        5D-1       -0.00193  -0.00127  -0.00798   0.00520   0.00133
  17        5D+2        0.01035   0.00228  -0.00835   0.00204   0.00826
  18        5D-2       -0.01396  -0.00953   0.00339   0.00152  -0.00957
  19 2   H  1S          0.09016   0.10184  -0.05697   0.00095   0.07325
  20        2S          0.08167   0.11917  -0.06529  -0.00419   0.07035
  21        3S          0.00858   0.05228  -0.02721  -0.00746   0.01207
  22 3   H  1S          0.08893  -0.05516   0.00448   0.10328   0.07487
  23        2S          0.07856  -0.06557   0.00588   0.12057   0.07038
  24        3S          0.00489  -0.03218   0.00589   0.04733   0.01654
  25 4   C  1S         -0.02789   0.01424  -0.01567   0.03054   0.00430
  26        2S         -0.04106   0.02069  -0.02272   0.04420   0.00476
  27        2PX         0.03104   0.01685   0.05206  -0.02566   0.01236
  28        2PY        -0.03651   0.05155   0.05622   0.05402  -0.01416
  29        2PZ         0.07578  -0.02364   0.05289  -0.05787   0.02844
  30        3S          0.09978  -0.05055   0.05555  -0.10828  -0.00823
  31        3PX         0.04834   0.02788   0.07659  -0.03203   0.02193
  32        3PY        -0.05577   0.07631   0.08942   0.07442  -0.02474
  33        3PZ         0.11372  -0.03092   0.07379  -0.07210   0.04903
  34        4S          0.01589  -0.03123   0.02711  -0.03878  -0.04629
  35        4PX         0.00882   0.01953   0.07079  -0.00773  -0.00439
  36        4PY        -0.01710   0.06971   0.09053   0.05342   0.00173
  37        4PZ         0.04813  -0.00378   0.05135  -0.05045   0.00241
  38        5D 0        0.00908  -0.00931   0.00778   0.00423   0.00448
  39        5D+1        0.01158   0.00590   0.00332  -0.00505   0.00757
  40        5D-1       -0.01065   0.00423   0.00401   0.00422  -0.00604
  41        5D+2       -0.00286   0.00489   0.00240  -0.00004  -0.00229
  42        5D-2       -0.00181  -0.00540   0.00254   0.00452  -0.00034
  43 5   H  1S         -0.01994   0.00097  -0.00382   0.01305  -0.01673
  44        2S         -0.02443  -0.00310  -0.00439   0.02435  -0.01884
  45        3S         -0.01189  -0.00895  -0.00030   0.02100  -0.00341
  46 6   C  1S          0.00455  -0.00359   0.00243  -0.00172   0.01714
  47        2S          0.00784  -0.00620   0.00430  -0.00337   0.02457
  48        2PX        -0.01564   0.01133  -0.00324   0.00735  -0.00012
  49        2PY         0.00980  -0.00194   0.01032  -0.00150   0.00331
  50        2PZ        -0.00428   0.00224   0.00142  -0.00145  -0.01246
  51        3S         -0.02584   0.02181  -0.01519   0.01201  -0.06551
  52        3PX        -0.01808   0.01571  -0.00203   0.01231   0.00183
  53        3PY         0.01168   0.00019   0.01796  -0.00154   0.00345
  54        3PZ        -0.00630   0.00355   0.00346  -0.00341  -0.01715
  55        4S         -0.01919   0.02977  -0.01615  -0.00125  -0.02646
  56        4PX        -0.01630   0.01559  -0.01051   0.00018  -0.00703
  57        4PY         0.01297  -0.01201   0.00375  -0.00220   0.00442
  58        4PZ        -0.01539   0.00562  -0.00527   0.00479  -0.00185
  59        5D 0       -0.00113   0.00082  -0.00040  -0.00297   0.00334
  60        5D+1        0.00658  -0.00261   0.00507  -0.00483   0.00230
  61        5D-1       -0.00359   0.00079  -0.00452   0.00314  -0.00197
  62        5D+2       -0.00054   0.00514   0.00978   0.00481  -0.00207
  63        5D-2       -0.00228   0.00620   0.00543   0.00077   0.00205
  64 7   O  1S          0.00098  -0.00098   0.00025   0.00110  -0.00226
  65        2S          0.00160  -0.00159   0.00043   0.00174  -0.00602
  66        2PX        -0.01063  -0.00100  -0.01488  -0.00784  -0.01548
  67        2PY         0.00721  -0.01677  -0.02171  -0.00177   0.00240
  68        2PZ        -0.00532  -0.00071  -0.00589  -0.00725   0.02541
  69        3S         -0.00518   0.00520  -0.00135  -0.00586   0.02607
  70        3PX        -0.01467  -0.00147  -0.02108  -0.01157  -0.02150
  71        3PY         0.01058  -0.02403  -0.03086  -0.00259   0.00369
  72        3PZ        -0.00983  -0.00037  -0.00901  -0.00925   0.03393
  73        4S          0.00374   0.00039   0.00115  -0.00503   0.04183
  74        4PX        -0.01055  -0.00531  -0.02116  -0.01060  -0.01378
  75        4PY         0.00787  -0.02411  -0.03416  -0.00339   0.00107
  76        4PZ        -0.00816   0.00051  -0.00980  -0.01172   0.02761
  77        5D 0        0.00144  -0.00044   0.00080  -0.00008  -0.00119
  78        5D+1        0.00027  -0.00025   0.00058   0.00059   0.00264
  79        5D-1       -0.00068   0.00102   0.00062   0.00000  -0.00069
  80        5D+2       -0.00039   0.00019  -0.00013  -0.00003  -0.00096
  81        5D-2        0.00038  -0.00020  -0.00022  -0.00025   0.00044
  82 8   O  1S         -0.00338   0.00194  -0.00186   0.00316  -0.00863
  83        2S         -0.00524   0.00300  -0.00292   0.00505  -0.01352
  84        2PX         0.00727  -0.00658  -0.00533  -0.00748   0.02281
  85        2PY        -0.00517  -0.00597  -0.01627   0.00043  -0.00955
  86        2PZ         0.00421  -0.00472  -0.00130  -0.00448  -0.01409
  87        3S          0.01582  -0.00886   0.00880  -0.01562   0.03935
  88        3PX         0.01063  -0.00939  -0.00777  -0.01077   0.03252
  89        3PY        -0.00772  -0.00857  -0.02353   0.00065  -0.01368
  90        3PZ         0.00674  -0.00728  -0.00157  -0.00666  -0.01987
  91        4S          0.01190  -0.01153   0.01150  -0.02072   0.04214
  92        4PX         0.01026  -0.01107  -0.00824  -0.00968   0.03165
  93        4PY        -0.00570  -0.00923  -0.02474  -0.00115  -0.01300
  94        4PZ        -0.00022  -0.00549  -0.00376  -0.00400  -0.02082
  95        5D 0        0.00102  -0.00062   0.00021  -0.00046  -0.00061
  96        5D+1       -0.00017   0.00042  -0.00032   0.00017   0.00142
  97        5D-1       -0.00012  -0.00039  -0.00037  -0.00026  -0.00029
  98        5D+2       -0.00051   0.00057   0.00052   0.00059  -0.00071
  99        5D-2        0.00087  -0.00015   0.00101  -0.00062   0.00056
 100 9   C  1S          0.00130  -0.00050   0.00045  -0.00071  -0.00506
 101        2S          0.00221  -0.00099   0.00086  -0.00129  -0.00549
 102        2PX        -0.00503   0.00330  -0.00083   0.00516  -0.01154
 103        2PY         0.00338   0.00011   0.00454  -0.00209   0.00708
 104        2PZ        -0.00227   0.00132   0.00009   0.00099  -0.00208
 105        3S         -0.00699   0.00375  -0.00312   0.00427   0.00689
 106        3PX        -0.00787   0.00515  -0.00167   0.00839  -0.01830
 107        3PY         0.00519  -0.00004   0.00672  -0.00346   0.01132
 108        3PZ        -0.00314   0.00173   0.00030   0.00109  -0.00366
 109        4S         -0.00927   0.00570  -0.00447   0.00559   0.00672
 110        4PX        -0.00583   0.00481  -0.00260   0.00758  -0.00856
 111        4PY         0.00379  -0.00086   0.00510  -0.00421   0.00527
 112        4PZ        -0.00215   0.00072  -0.00029   0.00349  -0.00174
 113        5D 0        0.00088  -0.00041   0.00026  -0.00022   0.00062
 114        5D+1        0.00041  -0.00076  -0.00019  -0.00042  -0.00173
 115        5D-1       -0.00050   0.00057  -0.00003   0.00019   0.00118
 116        5D+2       -0.00042  -0.00105  -0.00233  -0.00022  -0.00060
 117        5D-2        0.00040  -0.00072  -0.00126  -0.00070   0.00175
 118 10  H  1S         -0.00009   0.00221   0.00375   0.00027   0.00606
 119        2S          0.00005   0.00438   0.00721   0.00019   0.00608
 120        3S          0.00128   0.00038   0.00087  -0.00014   0.00588
 121 11  H  1S          0.00228  -0.00113   0.00089  -0.00100   0.00471
 122        2S          0.00422  -0.00240   0.00150  -0.00057   0.00299
 123        3S          0.00356  -0.00304   0.00186  -0.00059   0.00142
 124 12  H  1S         -0.00010  -0.00189  -0.00363  -0.00158   0.00582
 125        2S          0.00004  -0.00350  -0.00697  -0.00337   0.00568
 126        3S          0.00127  -0.00052  -0.00075  -0.00053   0.00554
                          11        12        13        14        15
  11        4PX         0.10397
  12        4PY         0.01257   0.11560
  13        4PZ        -0.00136   0.01302   0.07786
  14        5D 0       -0.01177   0.00219   0.00352   0.00209
  15        5D+1        0.00165  -0.00373  -0.00996  -0.00082   0.00182
  16        5D-1       -0.00203  -0.00626   0.00205   0.00001  -0.00028
  17        5D+2        0.00072  -0.00659   0.00014  -0.00029  -0.00008
  18        5D-2       -0.00704   0.00205   0.00165   0.00103  -0.00020
  19 2   H  1S          0.06699  -0.03572  -0.00626  -0.00839   0.00001
  20        2S          0.07693  -0.03969  -0.01234  -0.01037   0.00087
  21        3S          0.03470  -0.01694  -0.00932  -0.00545   0.00157
  22 3   H  1S         -0.04038   0.00674   0.06200   0.00764  -0.01047
  23        2S         -0.04821   0.00820   0.07337   0.00924  -0.01204
  24        3S         -0.03192   0.01224   0.02175   0.00500  -0.00515
  25 4   C  1S         -0.00037  -0.00148   0.00668  -0.00358  -0.00365
  26        2S          0.00132  -0.00355   0.01118  -0.00442  -0.00454
  27        2PX         0.00095   0.05305  -0.00973   0.00495  -0.00318
  28        2PY         0.05183   0.05346   0.03735  -0.00482  -0.00340
  29        2PZ        -0.00488   0.03460  -0.03380  -0.00225   0.00433
  30        3S         -0.00857   0.01302  -0.03276   0.00800   0.00887
  31        3PX         0.00409   0.07853  -0.01021   0.00733  -0.00528
  32        3PY         0.07705   0.08428   0.05240  -0.00711  -0.00468
  33        3PZ        -0.00433   0.04906  -0.04331  -0.00400   0.00540
  34        4S          0.01364  -0.01178   0.01590   0.00565   0.00445
  35        4PX         0.00296   0.07196   0.00131   0.00443  -0.00424
  36        4PY         0.06872   0.08469   0.03798  -0.00526  -0.00449
  37        4PZ         0.01391   0.03102  -0.01954  -0.00382   0.00426
  38        5D 0       -0.00691   0.00614   0.00478   0.00197  -0.00112
  39        5D+1        0.00579   0.00291  -0.00403  -0.00116   0.00045
  40        5D-1        0.00329   0.00451   0.00299  -0.00024  -0.00028
  41        5D+2        0.00414   0.00259   0.00028  -0.00040   0.00017
  42        5D-2       -0.00444   0.00233   0.00334   0.00090  -0.00068
  43 5   H  1S         -0.00813   0.00039   0.01635   0.00671  -0.00320
  44        2S         -0.01493   0.00218   0.02435   0.00842  -0.00481
  45        3S         -0.01482   0.00413   0.01640   0.00469  -0.00350
  46 6   C  1S         -0.01075   0.00772  -0.00691   0.00148  -0.00140
  47        2S         -0.01601   0.01149  -0.01028   0.00241  -0.00194
  48        2PX         0.01759  -0.00534  -0.00363  -0.00502   0.00281
  49        2PY        -0.00568   0.00911   0.00166   0.00213  -0.00255
  50        2PZ        -0.00228   0.00106   0.00742   0.00030  -0.00014
  51        3S          0.04541  -0.03262   0.02918  -0.00754   0.00485
  52        3PX         0.02589  -0.00617  -0.00300  -0.00698   0.00380
  53        3PY        -0.00611   0.01621   0.00264   0.00281  -0.00383
  54        3PZ        -0.00323   0.00299   0.00911   0.00026  -0.00005
  55        4S          0.02990  -0.01671   0.00081  -0.00715   0.00362
  56        4PX         0.01097  -0.00761  -0.00480  -0.00403   0.00192
  57        4PY        -0.00879  -0.00108   0.00315   0.00226  -0.00176
  58        4PZ        -0.00067   0.00078  -0.00702  -0.00124   0.00030
  59        5D 0       -0.00605   0.00535  -0.00690   0.00039  -0.00035
  60        5D+1       -0.00124   0.00517  -0.00468  -0.00028   0.00037
  61        5D-1        0.00304  -0.00404   0.00462  -0.00002  -0.00009
  62        5D+2        0.00763   0.00742   0.00637  -0.00018  -0.00037
  63        5D-2        0.00133   0.00779  -0.00184  -0.00016  -0.00039
  64 7   O  1S          0.00123  -0.00179   0.00433  -0.00026   0.00001
  65        2S          0.00198  -0.00308   0.00777  -0.00035   0.00006
  66        2PX        -0.02220   0.00099  -0.00925   0.00125  -0.00051
  67        2PY         0.00263  -0.02826   0.00782   0.00008   0.00043
  68        2PZ        -0.01634   0.01164  -0.03544  -0.00131   0.00110
  69        3S         -0.00576   0.00997  -0.02662   0.00073  -0.00027
  70        3PX        -0.03134   0.00136  -0.01403   0.00164  -0.00060
  71        3PY         0.00340  -0.04027   0.01116   0.00017   0.00053
  72        3PZ        -0.02296   0.01596  -0.04893  -0.00186   0.00150
  73        4S         -0.00787   0.01181  -0.02919   0.00097  -0.00030
  74        4PX        -0.03545   0.00281  -0.01535   0.00266  -0.00119
  75        4PY         0.00464  -0.04293   0.01070  -0.00035   0.00125
  76        4PZ        -0.02345   0.01505  -0.04636  -0.00129   0.00120
  77        5D 0        0.00077  -0.00050   0.00209   0.00023  -0.00013
  78        5D+1        0.00018   0.00066  -0.00100  -0.00006   0.00001
  79        5D-1        0.00029   0.00086  -0.00013  -0.00006   0.00007
  80        5D+2       -0.00027   0.00015   0.00014  -0.00003  -0.00001
  81        5D-2        0.00032  -0.00049   0.00007   0.00003  -0.00005
  82 8   O  1S          0.00054  -0.00161   0.00530  -0.00023  -0.00002
  83        2S          0.00191  -0.00311   0.00826  -0.00041   0.00002
  84        2PX        -0.01290  -0.00694  -0.01161   0.00113  -0.00031
  85        2PY        -0.00764  -0.02650   0.00093  -0.00042   0.00076
  86        2PZ        -0.00781  -0.00159  -0.00778   0.00033  -0.00020
  87        3S         -0.00973   0.01137  -0.02404   0.00136  -0.00020
  88        3PX        -0.01816  -0.01034  -0.01632   0.00158  -0.00043
  89        3PY        -0.01127  -0.03795   0.00102  -0.00062   0.00108
  90        3PZ        -0.01116  -0.00244  -0.01085   0.00057  -0.00032
  91        4S         -0.02333   0.02123  -0.03338   0.00248  -0.00049
  92        4PX        -0.01815  -0.01212  -0.01496   0.00167  -0.00031
  93        4PY        -0.01230  -0.03966  -0.00022  -0.00049   0.00116
  94        4PZ        -0.01270  -0.00211  -0.01141   0.00031  -0.00009
  95        5D 0       -0.00048  -0.00023  -0.00009   0.00012  -0.00009
  96        5D+1        0.00062  -0.00062  -0.00031  -0.00016   0.00007
  97        5D-1       -0.00104  -0.00058  -0.00025   0.00005  -0.00004
  98        5D+2        0.00069   0.00042   0.00053  -0.00007  -0.00002
  99        5D-2       -0.00053   0.00130  -0.00032   0.00012  -0.00009
 100 9   C  1S         -0.00080   0.00007   0.00145   0.00026  -0.00012
 101        2S         -0.00141   0.00032   0.00176   0.00040  -0.00017
 102        2PX         0.00768  -0.00228   0.00727  -0.00084   0.00045
 103        2PY        -0.00079   0.00782  -0.00242   0.00052  -0.00026
 104        2PZ         0.00109   0.00112   0.00020  -0.00023   0.00010
 105        3S          0.00441  -0.00155  -0.00336  -0.00114   0.00042
 106        3PX         0.01236  -0.00408   0.01167  -0.00134   0.00071
 107        3PY        -0.00157   0.01203  -0.00401   0.00083  -0.00040
 108        3PZ         0.00131   0.00191   0.00008  -0.00029   0.00013
 109        4S          0.00234  -0.00043  -0.00304  -0.00090   0.00013
 110        4PX         0.01088  -0.00531   0.00918  -0.00123   0.00059
 111        4PY        -0.00442   0.00915  -0.00489   0.00088  -0.00029
 112        4PZ         0.00536  -0.00261   0.00438  -0.00058   0.00029
 113        5D 0       -0.00010   0.00015   0.00014   0.00011  -0.00007
 114        5D+1       -0.00076  -0.00034  -0.00025   0.00008  -0.00002
 115        5D-1        0.00040   0.00061  -0.00012  -0.00006   0.00003
 116        5D+2       -0.00114  -0.00344  -0.00025  -0.00003   0.00011
 117        5D-2       -0.00174  -0.00139  -0.00129   0.00009  -0.00003
 118 10  H  1S          0.00227   0.00736  -0.00147  -0.00002  -0.00008
 119        2S          0.00402   0.01293  -0.00095   0.00002  -0.00024
 120        3S          0.00393   0.00302   0.00025  -0.00027   0.00016
 121 11  H  1S         -0.00110   0.00107  -0.00178   0.00025  -0.00015
 122        2S          0.00077  -0.00041   0.00005   0.00017  -0.00010
 123        3S         -0.00043  -0.00014   0.00161   0.00044  -0.00020
 124 12  H  1S         -0.00438  -0.00474  -0.00442   0.00003  -0.00000
 125        2S         -0.00802  -0.00897  -0.00631   0.00021   0.00007
 126        3S         -0.00035  -0.00481  -0.00159  -0.00027   0.00021
                          16        17        18        19        20
  16        5D-1        0.00061
  17        5D+2        0.00039   0.00073
  18        5D-2        0.00009  -0.00059   0.00117
  19 2   H  1S          0.00116   0.00546  -0.00858   0.08267
  20        2S          0.00131   0.00589  -0.00958   0.09214   0.10466
  21        3S          0.00051   0.00202  -0.00374   0.03554   0.04212
  22 3   H  1S          0.00230   0.00193   0.00122  -0.01238  -0.02130
  23        2S          0.00278   0.00154   0.00251  -0.02034  -0.03077
  24        3S          0.00114  -0.00020   0.00246  -0.01823  -0.02082
  25 4   C  1S          0.00384   0.00064   0.00110   0.00411   0.00723
  26        2S          0.00469   0.00093   0.00113   0.00678   0.01128
  27        2PX        -0.00330  -0.00323   0.00198  -0.00673  -0.00961
  28        2PY        -0.00243  -0.00281  -0.00142   0.00576   0.00782
  29        2PZ        -0.00372  -0.00050  -0.00326  -0.00794  -0.00971
  30        3S         -0.00860  -0.00230  -0.00131  -0.01944  -0.03021
  31        3PX        -0.00479  -0.00473   0.00286  -0.00802  -0.01257
  32        3PY        -0.00409  -0.00457  -0.00206   0.00648   0.00963
  33        3PZ        -0.00485  -0.00031  -0.00510  -0.00798  -0.01034
  34        4S         -0.00422  -0.00281   0.00203  -0.01871  -0.03221
  35        4PX        -0.00386  -0.00412   0.00226  -0.01399  -0.01508
  36        4PY        -0.00439  -0.00404  -0.00200   0.00855   0.00942
  37        4PZ        -0.00357  -0.00098  -0.00308  -0.00302  -0.00402
  38        5D 0       -0.00028  -0.00044   0.00082  -0.00588  -0.00797
  39        5D+1       -0.00029   0.00023  -0.00092   0.00472   0.00521
  40        5D-1       -0.00012  -0.00040   0.00021  -0.00105  -0.00065
  41        5D+2       -0.00021  -0.00006  -0.00020   0.00137   0.00192
  42        5D-2        0.00015  -0.00023   0.00069  -0.00418  -0.00515
  43 5   H  1S         -0.00029  -0.00155   0.00362  -0.00767  -0.01086
  44        2S          0.00008  -0.00177   0.00465  -0.01169  -0.01544
  45        3S          0.00053  -0.00086   0.00279  -0.01009  -0.01242
  46 6   C  1S          0.00034  -0.00023   0.00096  -0.00357  -0.00405
  47        2S          0.00037  -0.00045   0.00152  -0.00566  -0.00671
  48        2PX        -0.00084   0.00040  -0.00320   0.00909   0.01328
  49        2PY        -0.00049  -0.00178   0.00131  -0.00504  -0.00797
  50        2PZ        -0.00053  -0.00013  -0.00047  -0.00007   0.00231
  51        3S         -0.00046   0.00162  -0.00450   0.01770   0.02179
  52        3PX        -0.00142   0.00048  -0.00466   0.01295   0.01849
  53        3PY        -0.00087  -0.00282   0.00185  -0.00716  -0.01117
  54        3PZ        -0.00089  -0.00024  -0.00079  -0.00019   0.00351
  55        4S          0.00017   0.00162  -0.00393   0.02015   0.02732
  56        4PX        -0.00033   0.00055  -0.00270   0.01066   0.01651
  57        4PY        -0.00035  -0.00149   0.00115  -0.00647  -0.01058
  58        4PZ         0.00005   0.00006  -0.00067   0.00215   0.00553
  59        5D 0        0.00005  -0.00002   0.00005  -0.00057   0.00114
  60        5D+1       -0.00030  -0.00008  -0.00035  -0.00108  -0.00088
  61        5D-1        0.00023  -0.00008   0.00005   0.00104   0.00049
  62        5D+2       -0.00046  -0.00042   0.00001  -0.00006  -0.00084
  63        5D-2       -0.00021  -0.00015  -0.00002   0.00071   0.00177
  64 7   O  1S          0.00011   0.00003  -0.00002  -0.00015  -0.00090
  65        2S          0.00011   0.00004  -0.00006  -0.00026  -0.00121
  66        2PX         0.00013   0.00027  -0.00062  -0.00031   0.00745
  67        2PY         0.00095  -0.00058   0.00023  -0.00013  -0.00617
  68        2PZ        -0.00013   0.00051  -0.00143   0.00127   0.00809
  69        3S         -0.00011  -0.00012   0.00028   0.00092   0.00297
  70        3PX         0.00013   0.00040  -0.00100  -0.00023   0.01090
  71        3PY         0.00134  -0.00087   0.00036  -0.00031  -0.00898
  72        3PZ        -0.00014   0.00071  -0.00199   0.00182   0.01165
  73        4S         -0.00019  -0.00015   0.00031  -0.00008   0.00046
  74        4PX         0.00041   0.00037  -0.00031  -0.00221   0.00762
  75        4PY         0.00152  -0.00041   0.00004   0.00077  -0.00715
  76        4PZ        -0.00005   0.00071  -0.00170   0.00190   0.01161
  77        5D 0        0.00003  -0.00005   0.00021  -0.00040  -0.00113
  78        5D+1        0.00002   0.00000   0.00004  -0.00014  -0.00036
  79        5D-1       -0.00002   0.00010  -0.00004   0.00024   0.00059
  80        5D+2       -0.00005  -0.00002  -0.00009   0.00008   0.00038
  81        5D-2        0.00001  -0.00009   0.00005  -0.00003  -0.00035
  82 8   O  1S          0.00008   0.00009  -0.00012   0.00078   0.00203
  83        2S          0.00012   0.00012  -0.00017   0.00135   0.00291
  84        2PX         0.00018   0.00018   0.00066  -0.00153  -0.00261
  85        2PY         0.00037   0.00082  -0.00010   0.00152   0.00194
  86        2PZ         0.00025   0.00002   0.00046  -0.00253  -0.00199
  87        3S         -0.00037  -0.00026   0.00044  -0.00450  -0.00750
  88        3PX         0.00026   0.00025   0.00093  -0.00208  -0.00369
  89        3PY         0.00052   0.00117  -0.00017   0.00218   0.00291
  90        3PZ         0.00035  -0.00001   0.00073  -0.00389  -0.00343
  91        4S         -0.00064  -0.00039   0.00071  -0.00837  -0.00826
  92        4PX         0.00031   0.00036   0.00101  -0.00254  -0.00457
  93        4PY         0.00070   0.00138   0.00000   0.00225   0.00272
  94        4PZ         0.00031   0.00022   0.00041  -0.00317  -0.00086
  95        5D 0        0.00001  -0.00006   0.00011  -0.00037  -0.00065
  96        5D+1       -0.00002   0.00000  -0.00009   0.00043   0.00040
  97        5D-1       -0.00002  -0.00002   0.00001  -0.00016  -0.00003
  98        5D+2       -0.00004  -0.00005  -0.00004   0.00010   0.00014
  99        5D-2       -0.00003  -0.00006   0.00006  -0.00036  -0.00039
 100 9   C  1S         -0.00003  -0.00003   0.00010  -0.00059  -0.00011
 101        2S         -0.00004  -0.00007   0.00017  -0.00092  -0.00046
 102        2PX         0.00002   0.00019  -0.00040   0.00195   0.00227
 103        2PY        -0.00002  -0.00007   0.00033  -0.00123  -0.00166
 104        2PZ        -0.00002   0.00014  -0.00024   0.00055   0.00153
 105        3S          0.00012   0.00028  -0.00059   0.00272   0.00263
 106        3PX         0.00004   0.00030  -0.00064   0.00319   0.00362
 107        3PY        -0.00002  -0.00010   0.00051  -0.00194  -0.00257
 108        3PZ        -0.00004   0.00020  -0.00033   0.00064   0.00213
 109        4S          0.00019   0.00029  -0.00048   0.00308   0.00421
 110        4PX         0.00015   0.00034  -0.00048   0.00344   0.00331
 111        4PY        -0.00003   0.00005   0.00048  -0.00219  -0.00202
 112        4PZ         0.00005   0.00017  -0.00025   0.00103   0.00072
 113        5D 0        0.00003  -0.00004   0.00010  -0.00026  -0.00060
 114        5D+1        0.00003  -0.00000   0.00006  -0.00037  -0.00039
 115        5D-1       -0.00001   0.00003  -0.00007   0.00029   0.00047
 116        5D+2        0.00006   0.00010  -0.00002   0.00017   0.00018
 117        5D-2        0.00005   0.00004   0.00006  -0.00007  -0.00005
 118 10  H  1S         -0.00005  -0.00000  -0.00005   0.00008   0.00016
 119        2S         -0.00020  -0.00017  -0.00011   0.00006   0.00047
 120        3S          0.00001  -0.00010  -0.00021   0.00062   0.00009
 121 11  H  1S          0.00005  -0.00013   0.00027  -0.00077  -0.00187
 122        2S          0.00009  -0.00020   0.00038  -0.00111  -0.00322
 123        3S          0.00003  -0.00020   0.00040  -0.00170  -0.00333
 124 12  H  1S          0.00006   0.00008  -0.00004   0.00008   0.00016
 125        2S          0.00016   0.00026   0.00003   0.00006   0.00046
 126        3S         -0.00003   0.00017  -0.00004   0.00061   0.00007
                          21        22        23        24        25
  21        3S          0.01912
  22 3   H  1S         -0.01760   0.08231
  23        2S         -0.02200   0.09231   0.10529
  24        3S         -0.01129   0.03584   0.04258   0.03039
  25 4   C  1S          0.00529   0.00368   0.00365   0.00467   0.65861
  26        2S          0.00742   0.00598   0.00654   0.00693   0.56081
  27        2PX        -0.00966  -0.00274  -0.00205   0.00993  -0.00160
  28        2PY         0.00646   0.00458   0.00684  -0.00080   0.00135
  29        2PZ        -0.00425  -0.01205  -0.02248  -0.01866  -0.00178
  30        3S         -0.01698  -0.01779  -0.02130  -0.01819  -0.08401
  31        3PX        -0.01399  -0.00153  -0.00010   0.01473  -0.00157
  32        3PY         0.00901   0.00407   0.00709  -0.00137  -0.00119
  33        3PZ        -0.00478  -0.01275  -0.02779  -0.02692   0.00813
  34        4S         -0.01554  -0.00843  -0.00445  -0.02486  -0.08710
  35        4PX        -0.00998   0.00185   0.00436   0.01700   0.00419
  36        4PY         0.00570   0.00390   0.00487  -0.00192  -0.00144
  37        4PZ        -0.00058  -0.01947  -0.02879  -0.02977  -0.00348
  38        5D 0       -0.00485   0.00741   0.00885   0.00420  -0.00193
  39        5D+1        0.00215  -0.00275  -0.00448  -0.00345   0.00297
  40        5D-1        0.00029  -0.00080  -0.00027   0.00057  -0.00056
  41        5D+2        0.00116  -0.00180  -0.00192  -0.00055  -0.00094
  42        5D-2       -0.00260   0.00375   0.00470   0.00227   0.00031
  43 5   H  1S         -0.00813   0.01008   0.01830   0.01804  -0.02071
  44        2S         -0.01099   0.01756   0.02814   0.02451  -0.02091
  45        3S         -0.00803   0.01499   0.02063   0.01360  -0.00040
  46 6   C  1S         -0.00218   0.00239   0.00168   0.00555   0.00498
  47        2S         -0.00400   0.00384   0.00301   0.00887   0.00794
  48        2PX         0.01065  -0.00684  -0.00980  -0.00412  -0.01355
  49        2PY        -0.00646   0.00414   0.00599   0.00396   0.00736
  50        2PZ         0.00217  -0.00134  -0.00216  -0.00636   0.00076
  51        3S          0.01419  -0.01233  -0.01100  -0.02809  -0.02219
  52        3PX         0.01471  -0.00798  -0.01206  -0.00603  -0.02452
  53        3PY        -0.00904   0.00512   0.00778   0.00574   0.01337
  54        3PZ         0.00347  -0.00273  -0.00428  -0.00909   0.00114
  55        4S          0.01666  -0.01698  -0.02031  -0.01583   0.00621
  56        4PX         0.01081  -0.00919  -0.01186  -0.00462   0.00129
  57        4PY        -0.00721   0.00552   0.00701  -0.00011  -0.00112
  58        4PZ         0.00476  -0.00161  -0.00165   0.01050   0.00155
  59        5D 0        0.00015  -0.00017  -0.00017   0.00704   0.00520
  60        5D+1       -0.00010  -0.00060  -0.00136   0.00164   0.00009
  61        5D-1        0.00024   0.00014   0.00045  -0.00323  -0.00130
  62        5D+2       -0.00044   0.00065   0.00101  -0.00250  -0.00248
  63        5D-2        0.00079  -0.00081  -0.00103   0.00272   0.00371
  64 7   O  1S         -0.00008   0.00050   0.00072  -0.00424  -0.00080
  65        2S         -0.00009   0.00084   0.00120  -0.00679  -0.00130
  66        2PX         0.00440  -0.00036   0.00024   0.01607   0.00667
  67        2PY        -0.00401   0.00079   0.00113  -0.01644  -0.00376
  68        2PZ         0.00631  -0.00233  -0.00499   0.02927   0.00018
  69        3S          0.00028  -0.00316  -0.00432   0.02016   0.00412
  70        3PX         0.00653  -0.00075  -0.00005   0.02315   0.00857
  71        3PY        -0.00590   0.00126   0.00177  -0.02342  -0.00496
  72        3PZ         0.00914  -0.00332  -0.00691   0.04119   0.00073
  73        4S         -0.00134  -0.00035  -0.00218   0.02047  -0.00092
  74        4PX         0.00407   0.00216   0.00340   0.02653   0.00904
  75        4PY        -0.00436  -0.00025  -0.00018  -0.02490  -0.00586
  76        4PZ         0.00844  -0.00372  -0.00679   0.03960   0.00318
  77        5D 0       -0.00089   0.00029   0.00054  -0.00182   0.00042
  78        5D+1       -0.00015   0.00025   0.00016   0.00074  -0.00002
  79        5D-1        0.00039  -0.00028  -0.00034   0.00030  -0.00014
  80        5D+2        0.00027  -0.00004  -0.00005   0.00018  -0.00009
  81        5D-2       -0.00030  -0.00008  -0.00005  -0.00050   0.00013
  82 8   O  1S          0.00220  -0.00003  -0.00065  -0.00152  -0.00183
  83        2S          0.00320  -0.00005  -0.00071  -0.00240  -0.00297
  84        2PX        -0.00426   0.00038  -0.00046  -0.00053   0.00371
  85        2PY         0.00261  -0.00057  -0.00063  -0.00360  -0.00278
  86        2PZ        -0.00107   0.00143   0.00363   0.01486   0.00274
  87        3S         -0.00838   0.00007   0.00064   0.00676   0.00935
  88        3PX        -0.00613   0.00046  -0.00079  -0.00135   0.00525
  89        3PY         0.00388  -0.00081  -0.00088  -0.00470  -0.00384
  90        3PZ        -0.00200   0.00219   0.00543   0.02081   0.00350
  91        4S         -0.00781   0.00006  -0.00045   0.01681   0.01091
  92        4PX        -0.00589   0.00098  -0.00023  -0.00184   0.00398
  93        4PY         0.00305  -0.00103  -0.00099  -0.00510  -0.00270
  94        4PZ         0.00067   0.00193   0.00468   0.02330   0.00184
  95        5D 0       -0.00056   0.00024   0.00047   0.00039   0.00029
  96        5D+1        0.00015  -0.00024  -0.00037  -0.00062  -0.00044
  97        5D-1        0.00008   0.00003  -0.00002   0.00019   0.00027
  98        5D+2        0.00018   0.00002   0.00007   0.00007  -0.00022
  99        5D-2       -0.00033   0.00007   0.00001   0.00016   0.00057
 100 9   C  1S         -0.00029   0.00011   0.00006  -0.00030   0.00058
 101        2S         -0.00064   0.00020   0.00005  -0.00063   0.00097
 102        2PX         0.00270  -0.00044  -0.00009  -0.00227  -0.00288
 103        2PY        -0.00179   0.00034   0.00020   0.00119   0.00171
 104        2PZ         0.00112  -0.00038  -0.00059   0.00033  -0.00043
 105        3S          0.00262  -0.00072  -0.00006   0.00273  -0.00323
 106        3PX         0.00430  -0.00062  -0.00003  -0.00359  -0.00485
 107        3PY        -0.00279   0.00049   0.00022   0.00181   0.00281
 108        3PZ         0.00158  -0.00057  -0.00084   0.00081  -0.00046
 109        4S          0.00303  -0.00044  -0.00014   0.00396  -0.00105
 110        4PX         0.00303  -0.00070  -0.00069  -0.00581  -0.00363
 111        4PY        -0.00190   0.00048   0.00058   0.00461   0.00233
 112        4PZ         0.00084  -0.00034  -0.00072  -0.00512  -0.00118
 113        5D 0       -0.00051   0.00019   0.00028  -0.00020   0.00016
 114        5D+1       -0.00014   0.00018   0.00038   0.00100   0.00029
 115        5D-1        0.00023  -0.00018  -0.00035  -0.00036  -0.00012
 116        5D+2        0.00022  -0.00008  -0.00009  -0.00040  -0.00028
 117        5D-2       -0.00025   0.00002  -0.00006   0.00018   0.00031
 118 10  H  1S         -0.00021  -0.00018  -0.00038   0.00064   0.00038
 119        2S         -0.00021  -0.00038  -0.00064   0.00104   0.00067
 120        3S         -0.00025  -0.00065  -0.00129  -0.00331  -0.00038
 121 11  H  1S         -0.00137   0.00055   0.00094   0.00118   0.00055
 122        2S         -0.00208   0.00087   0.00149  -0.00029   0.00012
 123        3S         -0.00220   0.00104   0.00141  -0.00176   0.00058
 124 12  H  1S         -0.00022  -0.00018  -0.00036   0.00062   0.00038
 125        2S         -0.00023  -0.00037  -0.00060   0.00102   0.00067
 126        3S         -0.00028  -0.00063  -0.00124  -0.00330  -0.00037
                          26        27        28        29        30
  26        2S          0.49069
  27        2PX        -0.00241   0.07998
  28        2PY         0.00184  -0.00569   0.07478
  29        2PZ        -0.00193   0.00079  -0.00597   0.09185
  30        3S         -0.14647   0.00427  -0.00331   0.00354   0.43769
  31        3PX        -0.00309   0.11839  -0.00557  -0.00214   0.00740
  32        3PY        -0.00081  -0.00536   0.11187  -0.00587   0.00019
  33        3PZ         0.01000  -0.00298  -0.00540   0.13514  -0.01712
  34        4S         -0.12527  -0.01128   0.01481  -0.03381   0.30295
  35        4PX         0.00411   0.07774   0.01222   0.00015  -0.00566
  36        4PY        -0.00188   0.01294   0.09126   0.00457   0.00488
  37        4PZ        -0.00153  -0.00288   0.00633   0.08132  -0.00704
  38        5D 0       -0.00374   0.00883  -0.00168  -0.00282   0.01193
  39        5D+1        0.00364  -0.00101   0.00139   0.01047  -0.00657
  40        5D-1        0.00027   0.00096   0.00546  -0.00311  -0.00414
  41        5D+2       -0.00168  -0.00080   0.00350  -0.00122   0.00519
  42        5D-2        0.00143   0.00376  -0.00168  -0.00168  -0.00681
  43 5   H  1S         -0.03299   0.03498  -0.00279  -0.06563   0.08851
  44        2S         -0.03181   0.04351  -0.00478  -0.07640   0.08034
  45        3S         -0.00130   0.02325  -0.00490  -0.03158   0.00430
  46 6   C  1S          0.00785   0.01682  -0.00926  -0.00044  -0.02036
  47        2S          0.01229   0.02721  -0.01501  -0.00057  -0.03181
  48        2PX        -0.02170  -0.04531   0.03372   0.00281   0.06149
  49        2PY         0.01175   0.03363  -0.00264   0.00173  -0.03315
  50        2PZ         0.00133   0.00317   0.00156   0.00365  -0.00427
  51        3S         -0.03398  -0.08206   0.04531   0.00155   0.08834
  52        3PX        -0.03670  -0.06460   0.05063   0.00396   0.09596
  53        3PY         0.02001   0.05054  -0.00084   0.00328  -0.05226
  54        3PZ         0.00170   0.00434   0.00311   0.00670  -0.00464
  55        4S          0.00510  -0.04653   0.02288   0.01223   0.00060
  56        4PX        -0.00043  -0.02569   0.01820   0.00480   0.00916
  57        4PY         0.00004   0.02061  -0.00282   0.00143  -0.00599
  58        4PZ         0.00076  -0.00492   0.00685  -0.00707   0.00350
  59        5D 0        0.00749   0.00851  -0.00515   0.00044  -0.01861
  60        5D+1        0.00017   0.00086  -0.00091   0.00796  -0.00043
  61        5D-1       -0.00194  -0.00355   0.00144  -0.00463   0.00507
  62        5D+2       -0.00348   0.00054   0.00828  -0.00047   0.00821
  63        5D-2        0.00516   0.00619   0.00185   0.00057  -0.01205
  64 7   O  1S         -0.00122  -0.00267   0.00116   0.00125   0.00312
  65        2S         -0.00199  -0.00432   0.00188   0.00199   0.00502
  66        2PX         0.01054   0.01596  -0.01389  -0.00481  -0.03041
  67        2PY        -0.00591  -0.01472  -0.00294  -0.00029   0.01675
  68        2PZ         0.00015  -0.00161  -0.00209   0.00035   0.00088
  69        3S          0.00629   0.01344  -0.00595  -0.00584  -0.01536
  70        3PX         0.01383   0.02173  -0.01912  -0.00630  -0.04095
  71        3PY        -0.00788  -0.02011  -0.00428  -0.00029   0.02268
  72        3PZ         0.00069  -0.00252  -0.00240  -0.00080   0.00073
  73        4S         -0.00023   0.01142  -0.00503  -0.00492  -0.00156
  74        4PX         0.01487   0.02811  -0.02475  -0.00973  -0.04463
  75        4PY        -0.00949  -0.02833  -0.00512   0.00021   0.02772
  76        4PZ         0.00466   0.00412  -0.00753  -0.00057  -0.01080
  77        5D 0        0.00064   0.00155  -0.00100   0.00024  -0.00175
  78        5D+1       -0.00019  -0.00063   0.00043  -0.00016   0.00116
  79        5D-1       -0.00014  -0.00035  -0.00001  -0.00009   0.00010
  80        5D+2       -0.00008   0.00006   0.00046   0.00017  -0.00002
  81        5D-2        0.00018   0.00060   0.00005   0.00001  -0.00038
  82 8   O  1S         -0.00282  -0.00433   0.00304  -0.00244   0.00773
  83        2S         -0.00462  -0.00703   0.00495  -0.00401   0.01267
  84        2PX         0.00596   0.00519  -0.00700   0.00338  -0.01704
  85        2PY        -0.00442  -0.00891  -0.00001  -0.00340   0.01260
  86        2PZ         0.00422   0.01066  -0.00745  -0.00001  -0.01210
  87        3S          0.01465   0.02178  -0.01555   0.01328  -0.04013
  88        3PX         0.00843   0.00686  -0.00968   0.00511  -0.02410
  89        3PY        -0.00618  -0.01250   0.00003  -0.00501   0.01784
  90        3PZ         0.00567   0.01585  -0.01098   0.00007  -0.01720
  91        4S          0.01717   0.03280  -0.02160   0.01266  -0.04728
  92        4PX         0.00645   0.00615  -0.01061   0.00392  -0.01843
  93        4PY        -0.00435  -0.01277  -0.00297  -0.00405   0.01246
[...]
 100 9   C  1S         -0.00002  -0.00115  -0.00027   0.00006  -0.00000
 101        2S          0.00006  -0.00216  -0.00052   0.00010  -0.00000
 102        2PX         0.00181   0.00686   0.00271  -0.00014   0.00006
 103        2PY         0.00080   0.00302  -0.00039  -0.00006   0.00002
 104        2PZ         0.00013   0.00004  -0.00000  -0.00059   0.00001
 105        3S         -0.00435   0.02431   0.00575  -0.00119   0.00025
 106        3PX         0.00945   0.02237   0.01129  -0.00063   0.00019
 107        3PY         0.00415   0.01272  -0.00430  -0.00028   0.00007
 108        3PZ         0.00066   0.00020  -0.00001  -0.00221   0.00004
 109        4S         -0.02486   0.00591   0.00094  -0.00057   0.00007
 110        4PX        -0.00238   0.00048   0.00659   0.00032  -0.00000
 111        4PY        -0.00024   0.00604  -0.00402   0.00027  -0.00000
 112        4PZ         0.00033   0.00000   0.00017  -0.01135   0.00002
 113        5D 0        0.00138   0.00020   0.00010   0.00013   0.00004
 114        5D+1       -0.00009   0.00012   0.00011   0.00303  -0.00002
 115        5D-1       -0.00006   0.00009  -0.00002   0.00122  -0.00001
 116        5D+2        0.00083   0.00033   0.00439  -0.00002   0.00000
 117        5D-2        0.00196   0.00233   0.00034   0.00002   0.00003
 118 10  H  1S         -0.00005  -0.00017  -0.00176  -0.00028   0.00000
 119        2S          0.00054   0.00072  -0.01078  -0.00151   0.00002
 120        3S          0.00269   0.00017  -0.01137  -0.00307   0.00001
 121 11  H  1S         -0.00081  -0.00001  -0.00024  -0.00098  -0.00000
 122        2S         -0.00581   0.00138  -0.00061  -0.00513  -0.00000
 123        3S         -0.00441  -0.00098  -0.00063  -0.00081  -0.00000
 124 12  H  1S         -0.00005  -0.00224   0.00004  -0.00001   0.00000
 125        2S          0.00052  -0.01193   0.00033   0.00003   0.00000
 126        3S          0.00269  -0.01430   0.00040  -0.00035   0.00000
                          96        97        98        99       100
  96        5D+1        0.00066
  97        5D-1        0.00000   0.00068
  98        5D+2        0.00000   0.00000   0.00036
  99        5D-2        0.00000   0.00000   0.00000   0.00042
 100 9   C  1S          0.00000   0.00000  -0.00000  -0.00001   0.65786
 101        2S          0.00000   0.00000  -0.00000  -0.00001   0.49230
 102        2PX        -0.00002  -0.00000   0.00001   0.00018   0.00000
 103        2PY        -0.00000  -0.00000   0.00013  -0.00001   0.00000
 104        2PZ         0.00005   0.00002   0.00000   0.00000   0.00000
 105        3S         -0.00002  -0.00001   0.00022   0.00054  -0.02848
 106        3PX        -0.00006  -0.00002   0.00001   0.00070   0.00000
 107        3PY        -0.00002  -0.00000   0.00071  -0.00002   0.00000
 108        3PZ         0.00044   0.00017   0.00000   0.00001   0.00000
 109        4S         -0.00000  -0.00000   0.00004   0.00011  -0.01305
 110        4PX        -0.00000  -0.00000   0.00002   0.00004   0.00000
 111        4PY        -0.00000   0.00000   0.00020   0.00003   0.00000
 112        4PZ         0.00020   0.00009   0.00000   0.00000   0.00000
 113        5D 0       -0.00002  -0.00001   0.00002   0.00001   0.00000
 114        5D+1        0.00004   0.00001   0.00000   0.00001   0.00000
 115        5D-1       -0.00001  -0.00000   0.00001  -0.00000   0.00000
 116        5D+2        0.00000  -0.00002  -0.00003   0.00006   0.00000
 117        5D-2       -0.00001   0.00000   0.00003   0.00003   0.00000
 118 10  H  1S          0.00000   0.00000   0.00000   0.00000  -0.00024
 119        2S          0.00001  -0.00000   0.00001   0.00002  -0.00121
 120        3S          0.00000  -0.00000   0.00001  -0.00000   0.00014
 121 11  H  1S          0.00000   0.00000  -0.00000   0.00000  -0.00025
 122        2S          0.00005   0.00004  -0.00000   0.00001  -0.00136
 123        3S          0.00002   0.00002  -0.00000  -0.00000   0.00005
 124 12  H  1S         -0.00000   0.00000   0.00000  -0.00000  -0.00024
 125        2S         -0.00000   0.00000   0.00006  -0.00000  -0.00121
 126        3S         -0.00000   0.00000   0.00001  -0.00000   0.00014
                         101       102       103       104       105
 101        2S          0.49079
 102        2PX         0.00000   0.06543
 103        2PY         0.00000   0.00000   0.08092
 104        2PZ         0.00000   0.00000   0.00000   0.09017
 105        3S         -0.06304   0.00000   0.00000   0.00000   0.45301
 106        3PX         0.00000   0.06574   0.00000   0.00000   0.00000
 107        3PY         0.00000   0.00000   0.08071   0.00000   0.00000
 108        3PZ         0.00000   0.00000   0.00000   0.08912   0.00000
 109        4S         -0.02321   0.00000   0.00000   0.00000   0.23923
 110        4PX         0.00000   0.01187   0.00000   0.00000   0.00000
 111        4PY         0.00000   0.00000   0.01755   0.00000   0.00000
 112        4PZ         0.00000   0.00000   0.00000   0.02103   0.00000
 113        5D 0        0.00000   0.00000   0.00000   0.00000   0.00000
 114        5D+1        0.00000   0.00000   0.00000   0.00000   0.00000
 115        5D-1        0.00000   0.00000   0.00000   0.00000   0.00000
 116        5D+2        0.00000   0.00000   0.00000   0.00000   0.00000
 117        5D-2        0.00000   0.00000   0.00000   0.00000   0.00000
 118 10  H  1S         -0.00034   0.00000   0.00504   0.00304   0.01646
 119        2S         -0.00234   0.00000   0.00996   0.00580   0.03127
 120        3S          0.00012   0.00000   0.00183   0.00118   0.00035
 121 11  H  1S         -0.00035   0.00001   0.00063   0.00763   0.01700
 122        2S         -0.00258  -0.00004   0.00107   0.01513   0.03442
 123        3S         -0.00003  -0.00001   0.00018   0.00256   0.00237
 124 12  H  1S         -0.00034   0.00455   0.00303   0.00049   0.01645
 125        2S         -0.00234   0.00872   0.00618   0.00086   0.03127
 126        3S          0.00012   0.00156   0.00126   0.00019   0.00036
                         106       107       108       109       110
 106        3PX         0.16697
 107        3PY         0.00000   0.20345
 108        3PZ         0.00000   0.00000   0.22264
 109        4S          0.00000   0.00000   0.00000   0.22616
 110        4PX         0.05631   0.00000   0.00000   0.00000   0.05015
 111        4PY         0.00000   0.08246   0.00000   0.00000   0.00000
 112        4PZ         0.00000   0.00000   0.09780   0.00000   0.00000
 113        5D 0        0.00000   0.00000   0.00000   0.00000   0.00000
 114        5D+1        0.00000   0.00000   0.00000   0.00000   0.00000
 115        5D-1        0.00000   0.00000   0.00000   0.00000   0.00000
 116        5D+2        0.00000   0.00000   0.00000   0.00000   0.00000
 117        5D-2        0.00000   0.00000   0.00000   0.00000   0.00000
 118 10  H  1S          0.00001   0.02923   0.01729   0.01883   0.00001
 119        2S          0.00001   0.04444   0.02542   0.03584   0.00002
 120        3S          0.00001   0.01019   0.00641   0.00411   0.00001
 121 11  H  1S          0.00007   0.00356   0.04315   0.01628   0.00009
 122        2S         -0.00020   0.00466   0.06616   0.02982  -0.00006
 123        3S         -0.00006   0.00095   0.01397   0.00092  -0.00008
 124 12  H  1S          0.02652   0.01727   0.00273   0.01883   0.01502
 125        2S          0.03903   0.02713   0.00372   0.03586   0.02897
 126        3S          0.00866   0.00695   0.00100   0.00416   0.00901
                         111       112       113       114       115
 111        4PY         0.08334
 112        4PZ         0.00000   0.10581
 113        5D 0        0.00000   0.00000   0.00258
 114        5D+1        0.00000   0.00000   0.00000   0.00109
 115        5D-1        0.00000   0.00000   0.00000   0.00000   0.00197
 116        5D+2        0.00000   0.00000   0.00000   0.00000   0.00000
 117        5D-2        0.00000   0.00000   0.00000   0.00000   0.00000
 118 10  H  1S          0.01711   0.01125   0.00002  -0.00000   0.00358
 119        2S          0.03403   0.02130   0.00001  -0.00000   0.00281
 120        3S          0.01112   0.00971  -0.00000  -0.00000   0.00029
 121 11  H  1S          0.00244   0.02835   0.00430   0.00005   0.00115
 122        2S          0.00430   0.05703   0.00334   0.00007   0.00102
 123        3S          0.00132   0.01955   0.00026   0.00000   0.00008
 124 12  H  1S          0.01145   0.00190   0.00080   0.00052   0.00027
 125        2S          0.02305   0.00333   0.00065   0.00036   0.00025
 126        3S          0.00994   0.00192   0.00008   0.00005   0.00002
                         116       117       118       119       120
 116        5D+2        0.00222
 117        5D-2        0.00000   0.00326
 118 10  H  1S          0.00175   0.00000   0.08374
 119        2S          0.00153  -0.00000   0.06681   0.11116
 120        3S          0.00015  -0.00000   0.01593   0.04234   0.03425
 121 11  H  1S          0.00004  -0.00001  -0.00001  -0.00053  -0.00209
 122        2S          0.00003   0.00000  -0.00066  -0.00394  -0.00692
 123        3S          0.00000   0.00000  -0.00171  -0.00510  -0.00476
 124 12  H  1S          0.00020   0.00356  -0.00001  -0.00072  -0.00219
 125        2S          0.00026   0.00282  -0.00072  -0.00530  -0.00838
 126        3S          0.00004   0.00026  -0.00219  -0.00837  -0.00760
                         121       122       123       124       125
 121 11  H  1S          0.08360
 122        2S          0.06740   0.11311
 123        3S          0.01364   0.03534   0.02024
 124 12  H  1S         -0.00001  -0.00066  -0.00171   0.08374
 125        2S         -0.00053  -0.00395  -0.00510   0.06682   0.11121
 126        3S         -0.00209  -0.00692  -0.00477   0.01594   0.04235
                         126
 126        3S          0.03417
     Gross orbital populations:
                           1
   1 1   C  1S          1.10333
   2        2S          0.88570
   3        2PX         0.21779
   4        2PY         0.18016
   5        2PZ         0.24112
   6        3S          0.79203
   7        3PX         0.52425
   8        3PY         0.42649
   9        3PZ         0.55481
  10        4S          0.51750
  11        4PX         0.32454
  12        4PY         0.33732
  13        4PZ         0.24046
  14        5D 0        0.01581
  15        5D+1        0.01294
  16        5D-1        0.00565
  17        5D+2        0.00504
  18        5D-2        0.00772
  19 2   H  1S          0.27785
  20        2S          0.38862
  21        3S          0.08298
  22 3   H  1S          0.27703
  23        2S          0.38815
  24        3S          0.09714
  25 4   C  1S          1.10325
  26        2S          0.88566
  27        2PX         0.21143
  28        2PY         0.19296
  29        2PZ         0.24396
  30        3S          0.78149
  31        3PX         0.49977
  32        3PY         0.45658
  33        3PZ         0.56027
  34        4S          0.48431
  35        4PX         0.23574
  36        4PY         0.33801
  37        4PZ         0.25155
  38        5D 0        0.01848
  39        5D+1        0.01506
  40        5D-1        0.00660
  41        5D+2        0.00645
  42        5D-2        0.00858
  43 5   H  1S          0.27718
  44        2S          0.39233
  45        3S          0.09271
  46 6   C  1S          1.10357
  47        2S          0.88566
  48        2PX         0.22567
  49        2PY         0.17411
  50        2PZ         0.21864
  51        3S          0.80171
  52        3PX         0.49842
  53        3PY         0.42147
  54        3PZ         0.45816
  55        4S          0.18669
  56        4PX         0.14175
  57        4PY         0.22092
  58        4PZ         0.03151
  59        5D 0        0.06882
  60        5D+1        0.04252
  61        5D-1        0.04541
  62        5D+2        0.02075
  63        5D-2        0.02076
  64 7   O  1S          1.08390
  65        2S          0.90913
  66        2PX         0.33554
  67        2PY         0.31496
  68        2PZ         0.32758
  69        3S          1.00972
  70        3PX         0.67965
  71        3PY         0.64526
  72        3PZ         0.66688
  73        4S          0.82394
  74        4PX         0.52855
  75        4PY         0.55654
  76        4PZ         0.49115
  77        5D 0        0.00438
  78        5D+1        0.00600
  79        5D-1        0.00304
  80        5D+2        0.00169
  81        5D-2        0.00154
  82 8   O  1S          1.08389
  83        2S          0.90919
  84        2PX         0.31458
  85        2PY         0.33947
  86        2PZ         0.32405
  87        3S          1.00933
  88        3PX         0.66940
  89        3PY         0.70185
  90        3PZ         0.67576
  91        4S          0.79834
  92        4PX         0.47285
  93        4PY         0.54262
  94        4PZ         0.46522
  95        5D 0        0.00524
  96        5D+1        0.00236
  97        5D-1        0.00291
  98        5D+2        0.00195
  99        5D-2        0.00231
 100 9   C  1S          1.10324
 101        2S          0.88653
 102        2PX         0.17713
 103        2PY         0.21422
 104        2PZ         0.23612
 105        3S          0.78602
 106        3PX         0.45829
 107        3PY         0.53982
 108        3PZ         0.58371
 109        4S          0.54969
 110        4PX         0.18330
 111        4PY         0.29850
 112        4PZ         0.36350
 113        5D 0        0.01769
 114        5D+1        0.00850
 115        5D-1        0.01411
 116        5D+2        0.01763
 117        5D-2        0.02370
 118 10  H  1S          0.28120
 119        2S          0.38924
 120        3S          0.09645
 121 11  H  1S          0.28157
 122        2S          0.39497
 123        3S          0.08390
 124 12  H  1S          0.28119
 125        2S          0.38933
 126        3S          0.09638
          Condensed to atoms (all electrons):
               1          2          3          4          5          6
     1  C    5.145629   0.384853   0.384413   0.554180  -0.032671  -0.059126
     2  H    0.384853   0.429639  -0.028521  -0.034869  -0.007308   0.005542
     3  H    0.384413  -0.028521   0.442368  -0.049683   0.005499  -0.008726
     4  C    0.554180  -0.034869  -0.049683   5.260879   0.373030   0.357850
     5  H   -0.032671  -0.007308   0.005499   0.373030   0.448562  -0.036629
     6  C   -0.059126   0.005542  -0.008726   0.357850  -0.036629   4.394505
     7  O    0.010514   0.000213   0.016197  -0.097928   0.003730   0.645906
     8  O    0.005448  -0.000118   0.000928  -0.076464   0.008935   0.349977
     9  C   -0.000620   0.000013  -0.000104   0.012091  -0.000902  -0.073420
    10  H    0.000020  -0.000000  -0.000028   0.000517   0.000054  -0.007349
    11  H   -0.000001  -0.000001  -0.000003   0.000009  -0.000140   0.005303
    12  H    0.000017  -0.000000  -0.000028   0.000506   0.000055  -0.007277
               7          8          9         10         11         12
     1  C    0.010514   0.005448  -0.000620   0.000020  -0.000001   0.000017
     2  H    0.000213  -0.000118   0.000013  -0.000000  -0.000001  -0.000000
     3  H    0.016197   0.000928  -0.000104  -0.000028  -0.000003  -0.000028
     4  C   -0.097928  -0.076464   0.012091   0.000517   0.000009   0.000506
     5  H    0.003730   0.008935  -0.000902   0.000054  -0.000140   0.000055
     6  C    0.645906   0.349977  -0.073420  -0.007349   0.005303  -0.007277
     7  O    7.876145  -0.085326   0.002836   0.008127   0.001044   0.007990
     8  O   -0.085326   7.973953   0.227243  -0.030129  -0.022990  -0.030140
     9  C    0.002836   0.227243   5.160466   0.377525   0.378938   0.377639
    10  H    0.008127  -0.030129   0.377525   0.479319  -0.025705  -0.035466
    11  H    0.001044  -0.022990   0.378938  -0.025705   0.449715  -0.025731
    12  H    0.007990  -0.030140   0.377639  -0.035466  -0.025731   0.479331
 Mulliken charges:
               1
     1  C   -0.392658
     2  H    0.250559
     3  H    0.237687
     4  C   -0.300118
     5  H    0.237784
     6  C    0.433443
     7  O   -0.389448
     8  O   -0.321320
     9  C   -0.461705
    10  H    0.233115
    11  H    0.239560
    12  H    0.233102
 Sum of Mulliken charges =  -0.00000
 Mulliken charges with hydrogens summed into heavy atoms:
               1
     1  C    0.095588
     4  C   -0.062334
     6  C    0.433443
     7  O   -0.389448
     8  O   -0.321320
     9  C    0.244073
 Electronic spatial extent (au):  <R**2>=           2073.9038
 Charge=              0.0000 electrons
 Dipole moment (field-independent basis, Debye):
    X=              0.8922    Y=             -0.0543    Z=             -1.7162  Tot=              1.9350
 Quadrupole moment (field-independent basis, Debye-Ang):
   XX=            -31.6018   YY=            -33.2941   ZZ=            -36.1021
   XY=             -2.0686   XZ=              6.3811   YZ=             -7.8340
 Traceless Quadrupole moment (field-independent basis, Debye-Ang):
   XX=              2.0642   YY=              0.3719   ZZ=             -2.4361
   XY=             -2.0686   XZ=              6.3811   YZ=             -7.8340
 Octapole moment (field-independent basis, Debye-Ang**2):
  XXX=             64.8158  YYY=           -277.0362  ZZZ=             -8.1348  XYY=              2.8425
  XXY=            -87.2122  XXZ=            -14.6785  XZZ=             26.9517  YZZ=           -103.6174
  YYZ=            -32.9863  XYZ=             20.8445
 Hexadecapole moment (field-independent basis, Debye-Ang**3):
 XXXX=           -432.9245 YYYY=          -1743.7696 ZZZZ=           -244.1387 XXXY=            273.5095
 XXXZ=            -44.1476 YYYX=            194.9777 YYYZ=            -62.7653 ZZZX=            -60.1828
 ZZZY=             35.6452 XXYY=           -334.7316 XXZZ=           -116.8964 YYZZ=           -366.7142
 XXYZ=            -32.7830 YYXZ=             51.1993 ZZXY=            104.2041
 N-N= 2.271411435080D+02 E-N=-1.172294477809D+03  KE= 3.055218416464D+02
 Orbital energies and kinetic energies (alpha):
                                 1                 2
  19         O                -0.381495          1.290890
  20         O                -0.356407          2.053620
  21         O                -0.306189          2.256466
  22         O                -0.286773          1.270925
  23         O                -0.282059          2.410922
  24         V                -0.049046          1.623840
  25         V                 0.065781          0.654213
  26         V                 0.079331          0.660343
  27         V                 0.080201          1.886483
  28         V                 0.097231          0.697039
 Total kinetic energy from orbitals= 3.055218416464D+02
 1\1\GINC-NODO16\SP\RB3LYP\6-311G(d)\C4H6O2\HERNANDEZ\14-Nov-2019\0\\# 
 6-311g(d) b3lyp empiricaldispersion=gd3 SCRF=(smd, Solvent=acetonitril
 e) Int=UltraFine nosymm scf=(maxcycle=1600, xqc) Temperature=273.15 Po
 p=Reg\\s-cis_MA\\0,1\C,0,1.039214,1.579005,1.239506\H,0,1.987731,1.053
 02,1.229579\H,0,0.507944,1.634627,2.184709\C,0,0.539937,2.136492,0.137
 968\H,0,1.056776,2.091065,-0.814691\C,0,-0.758979,2.853652,0.163011\O,
 0,-1.47027,2.998313,1.134451\O,0,-1.058729,3.336535,-1.057153\C,0,-2.3
 04146,4.056028,-1.165559\H,0,-2.301388,4.927524,-0.508873\H,0,-2.37252
 8,4.366515,-2.205772\H,0,-3.143857,3.408824,-0.906929\\Version=EM64L-G
 09RevE.01\HF=-306.5604075\RMSD=7.214e-09\Dipole=0.3510242,-0.0213693,-
 0.6752014\Quadrupole=1.5346874,0.2764976,-1.811185,-1.5379447,4.744159
 9,-5.8243624\PG=C01 [X(C4H6O2)]\\@


 DEMOCRATS BUY MOST OF THE BOOKS THAT HAVE BEEN
 BANNED; REPUBLICANS FORM CENSORSHIP COMMITTEES AND
 READ THEM AS A GROUP.
 Job cpu time:       0 days  0 hours  2 minutes 47.9 seconds.
 File lengths (MBytes):  RWF=     25 Int=      0 D2E=      0 Chk=      2 Scr=      1
 Normal termination of Gaussian 09 at Thu Nov 14 18:59:08 2019.
